CO2 test                                                                
Freq      RB3LYP                                                      6-31G(d)            
Number of atoms                            I                3
Info1-9                                    I   N=           9
          13          13        1002           0           0         101
           6          18        -502
Charge                                     I                0
Multiplicity                               I                1
Number of electrons                        I               22
Number of alpha electrons                  I               11
Number of beta electrons                   I               11
Number of basis functions                  I               45
Number of independent functions            I               45
Number of point charges in /Mol/           I                0
Number of translation vectors              I                0
Atomic numbers                             I   N=           3
           6           8           8
Nuclear charges                            R   N=           3
  6.00000000E+00  8.00000000E+00  8.00000000E+00
Current cartesian coordinates              R   N=           9
  3.93500924E-16  0.00000000E+00  0.00000000E+00  3.93500924E-16  0.00000000E+00
  2.20940548E+00  6.64075059E-16  0.00000000E+00 -2.20940548E+00
Force Field                                I                0
Int Atom Types                             I   N=           3
           0           0           0
MM charges                                 R   N=           3
  0.00000000E+00  0.00000000E+00  0.00000000E+00
Integer atomic weights                     I   N=           3
          12          16          16
Real atomic weights                        R   N=           3
  1.20000000E+01  1.59949146E+01  1.59949146E+01
Atom fragment info                         I   N=           3
           0           0           0
Atom residue num                           I   N=           3
           0           0           0
Nuclear spins                              I   N=           3
           0           0           0
Nuclear ZEff                               R   N=           3
 -3.60000000E+00 -5.60000000E+00 -5.60000000E+00
Nuclear ZNuc                               R   N=           3
  6.00000000E+00  8.00000000E+00  8.00000000E+00
Nuclear QMom                               R   N=           3
  0.00000000E+00  0.00000000E+00  0.00000000E+00
Nuclear GFac                               R   N=           3
  0.00000000E+00  0.00000000E+00  0.00000000E+00
MicOpt                                     I   N=           3
          -1          -1          -1
SymInf integers                            I   N=          26
           2           8           1           1           1          -1
           1          -1          -1          -1           1           1
          -1          -1          -1           1           1           1
          -1           1           1           1          -1          -1
          -1          -1
RotTr to input orientation                 R   N=          12
  1.00000000E+00  0.00000000E+00  0.00000000E+00  0.00000000E+00  1.00000000E+00
  0.00000000E+00  0.00000000E+00  0.00000000E+00  1.00000000E+00  3.93500924E-16
  0.00000000E+00  0.00000000E+00
Number of contracted shells                I               12
Number of primitive shells                 I               33
Pure/Cartesian d shells                    I                1
Pure/Cartesian f shells                    I                0
Highest angular momentum                   I                2
Largest degree of contraction              I                6
Shell types                                I   N=          12
           0          -1          -1           2           0          -1
          -1           2           0          -1          -1           2
Number of primitives per shell             I   N=          12
           6           3           1           1           6           3
           1           1           6           3           1           1
Shell to atom map                          I   N=          12
           1           1           1           1           2           2
           2           2           3           3           3           3
Primitive exponents                        R   N=          33
  3.04752488E+03  4.57369518E+02  1.03948685E+02  2.92101553E+01  9.28666296E+00
  3.16392696E+00  7.86827235E+00  1.88128854E+00  5.44249258E-01  1.68714478E-01
  8.00000000E-01  5.48467166E+03  8.25234946E+02  1.88046958E+02  5.29645000E+01
  1.68975704E+01  5.79963534E+00  1.55396162E+01  3.59993359E+00  1.01376175E+00
  2.70005823E-01  8.00000000E-01  5.48467166E+03  8.25234946E+02  1.88046958E+02
  5.29645000E+01  1.68975704E+01  5.79963534E+00  1.55396162E+01  3.59993359E+00
  1.01376175E+00  2.70005823E-01  8.00000000E-01
Contraction coefficients                   R   N=          33
  1.83473713E-03  1.40373228E-02  6.88426223E-02  2.32184443E-01  4.67941348E-01
  3.62311985E-01 -1.19332420E-01 -1.60854152E-01  1.14345644E+00  1.00000000E+00
  1.00000000E+00  1.83107443E-03  1.39501722E-02  6.84450781E-02  2.32714336E-01
  4.70192898E-01  3.58520853E-01 -1.10777550E-01 -1.48026263E-01  1.13076702E+00
  1.00000000E+00  1.00000000E+00  1.83107443E-03  1.39501722E-02  6.84450781E-02
  2.32714336E-01  4.70192898E-01  3.58520853E-01 -1.10777550E-01 -1.48026263E-01
  1.13076702E+00  1.00000000E+00  1.00000000E+00
P(S=P) Contraction coefficients            R   N=          33
  0.00000000E+00  0.00000000E+00  0.00000000E+00  0.00000000E+00  0.00000000E+00
  0.00000000E+00  6.89990666E-02  3.16423961E-01  7.44308291E-01  1.00000000E+00
  0.00000000E+00  0.00000000E+00  0.00000000E+00  0.00000000E+00  0.00000000E+00
  0.00000000E+00  0.00000000E+00  7.08742682E-02  3.39752839E-01  7.27158577E-01
  1.00000000E+00  0.00000000E+00  0.00000000E+00  0.00000000E+00  0.00000000E+00
  0.00000000E+00  0.00000000E+00  0.00000000E+00  7.08742682E-02  3.39752839E-01
  7.27158577E-01  1.00000000E+00  0.00000000E+00
Coordinates of each shell                  R   N=          36
  0.00000000E+00  0.00000000E+00  0.00000000E+00  0.00000000E+00  0.00000000E+00
  0.00000000E+00  0.00000000E+00  0.00000000E+00  0.00000000E+00  0.00000000E+00
  0.00000000E+00  0.00000000E+00  0.00000000E+00  0.00000000E+00  2.20940548E+00
  0.00000000E+00  0.00000000E+00  2.20940548E+00  0.00000000E+00  0.00000000E+00
  2.20940548E+00  0.00000000E+00  0.00000000E+00  2.20940548E+00  2.70574135E-16
  0.00000000E+00 -2.20940548E+00  2.70574135E-16  0.00000000E+00 -2.20940548E+00
  2.70574135E-16  0.00000000E+00 -2.20940548E+00  2.70574135E-16  0.00000000E+00
 -2.20940548E+00
Constraint Structure                       R   N=           9
  0.00000000E+00  0.00000000E+00  0.00000000E+00  0.00000000E+00  0.00000000E+00
  2.20940548E+00  2.70574135E-16  0.00000000E+00 -2.20940548E+00
Num ILSW                                   I              100
ILSW                                       I   N=         100
           0           1           0           0           2           0
           0           0           0           0         402          -1
           0           0           0           0           2           0
           0           0           1           0           1           0
           1           0           0           0           0           0
           0           0      100000           0          -1           0
           0           0           0           0           0           0
           0           0           0           1           0           0
           0           0           1           0           0           0
           0           0           4          41           0           0
           0           0           5           0           0           0
           0           0           0           0           0           0
           0           0           0           0           0           0
           0           0           0           0           0           0
           0           0           0           0           0           0
           0           0           0           0           0           0
           0           0           0           0
Num RLSW                                   I               41
RLSW                                       R   N=          41
  8.00000000E-01  7.20000000E-01  1.00000000E+00  8.10000000E-01  2.00000000E-01
  0.00000000E+00  0.00000000E+00  1.00000000E+00  0.00000000E+00  0.00000000E+00
  0.00000000E+00  0.00000000E+00  1.00000000E+00  0.00000000E+00  0.00000000E+00
  0.00000000E+00  0.00000000E+00  1.00000000E+00  0.00000000E+00  0.00000000E+00
  0.00000000E+00  0.00000000E+00  1.00000000E+00  0.00000000E+00  0.00000000E+00
  0.00000000E+00  0.00000000E+00  1.00000000E+00  0.00000000E+00  0.00000000E+00
  0.00000000E+00  0.00000000E+00  1.00000000E+00  0.00000000E+00  0.00000000E+00
  0.00000000E+00  0.00000000E+00  0.00000000E+00  1.00000000E+00  1.00000000E+00
  0.00000000E+00
MxBond                                     I                2
NBond                                      I   N=           3
           2           1           1
IBond                                      I   N=           6
           2           3           1           0           1           0
RBond                                      R   N=           6
  2.00000000E+00  2.00000000E+00  2.00000000E+00  0.00000000E+00  2.00000000E+00
  0.00000000E+00
Virial Ratio                               R      2.008907130300444E+00
SCF Energy                                 R     -1.885809402236304E+02
Total Energy                               R     -1.885809402236304E+02
RMS Force                                  R      8.147858655921439E-08
RMS Density                                R      7.800843685861841E-10
Job Status                                 I                1
Nuclear derivative order                   I                2
External E-field                           R   N=          35
  0.00000000E+00  0.00000000E+00  0.00000000E+00  0.00000000E+00  0.00000000E+00
  0.00000000E+00  0.00000000E+00  0.00000000E+00  0.00000000E+00  0.00000000E+00
  0.00000000E+00  0.00000000E+00  0.00000000E+00  0.00000000E+00  0.00000000E+00
  0.00000000E+00  0.00000000E+00  0.00000000E+00  0.00000000E+00  0.00000000E+00
  0.00000000E+00  0.00000000E+00  0.00000000E+00  0.00000000E+00  0.00000000E+00
  0.00000000E+00  0.00000000E+00  0.00000000E+00  0.00000000E+00  0.00000000E+00
  0.00000000E+00  0.00000000E+00  0.00000000E+00  0.00000000E+00  0.00000000E+00
IOpCl                                      I                0
IROHF                                      I                0
Alpha Orbital Energies                     R   N=          45
 -1.92365934E+01 -1.92365862E+01 -1.03852991E+01 -1.16097634E+00 -1.11963486E+00
 -5.62336302E-01 -5.16548655E-01 -5.12765479E-01 -5.12765479E-01 -3.69968232E-01
 -3.69968232E-01  2.99103511E-02  2.99103511E-02  8.43320002E-02  3.65775285E-01
  4.72603221E-01  4.72603221E-01  5.84343448E-01  7.35243343E-01  7.81542070E-01
  8.74193391E-01  8.74193391E-01  1.03772690E+00  1.04165067E+00  1.04165067E+00
  1.37741410E+00  1.39387943E+00  1.39388470E+00  1.40639770E+00  1.40639770E+00
  1.72627762E+00  1.72627786E+00  1.83356145E+00  2.02760075E+00  2.02760567E+00
  2.12104378E+00  2.12104378E+00  2.72071630E+00  2.91521560E+00  2.95399378E+00
  2.95399378E+00  3.04929851E+00  3.74167779E+00  4.38892148E+00  4.45001723E+00
Alpha MO coefficients                      R   N=        2025
 -1.43375932E-04  1.57660690E-04  0.00000000E+00  0.00000000E+00  0.00000000E+00
 -5.36225162E-03  0.00000000E+00  0.00000000E+00  0.00000000E+00 -5.29417126E-05
 -5.29417126E-05 -3.21206473E-03  0.00000000E+00  0.00000000E+00  0.00000000E+00
  7.02039203E-01  1.85520256E-02  0.00000000E+00  0.00000000E+00 -1.64717598E-03
  9.64832048E-03  0.00000000E+00  0.00000000E+00 -1.94148126E-03 -5.77607536E-03
 -5.77607536E-03 -4.32153993E-03  0.00000000E+00  0.00000000E+00  0.00000000E+00
  7.02039203E-01  1.85520256E-02  0.00000000E+00  0.00000000E+00  1.64717598E-03
  9.64832048E-03  0.00000000E+00  0.00000000E+00  1.94148126E-03 -5.77607536E-03
 -5.77607536E-03 -4.32153993E-03  0.00000000E+00  0.00000000E+00  0.00000000E+00
  0.00000000E+00  0.00000000E+00  0.00000000E+00  0.00000000E+00 -1.52010451E-04
  0.00000000E+00  0.00000000E+00  0.00000000E+00 -7.29593839E-03  0.00000000E+00
  0.00000000E+00  0.00000000E+00  0.00000000E+00  0.00000000E+00  0.00000000E+00
  7.01822795E-01  1.74468887E-02  0.00000000E+00  0.00000000E+00 -8.21540549E-04
  1.42908759E-02  0.00000000E+00  0.00000000E+00 -1.78114358E-03 -6.18365663E-03
 -6.18365663E-03 -5.92667005E-03  0.00000000E+00  0.00000000E+00  0.00000000E+00
 -7.01822795E-01 -1.74468887E-02  0.00000000E+00  0.00000000E+00 -8.21540549E-04
 -1.42908759E-02  0.00000000E+00  0.00000000E+00 -1.78114358E-03  6.18365663E-03
  6.18365663E-03  5.92667005E-03  0.00000000E+00  0.00000000E+00  0.00000000E+00
  9.92807386E-01  4.95428831E-02  0.00000000E+00  0.00000000E+00  0.00000000E+00
 -7.51227447E-04  0.00000000E+00  0.00000000E+00  0.00000000E+00 -1.04290934E-02
 -1.04290934E-02 -6.33329552E-03  0.00000000E+00  0.00000000E+00  0.00000000E+00
 -2.73897949E-04  9.87254089E-05  0.00000000E+00  0.00000000E+00  4.62347031E-04
 -3.24277273E-03  0.00000000E+00  0.00000000E+00  2.93961160E-03  3.42494310E-04
  3.42494310E-04 -9.31417938E-04  0.00000000E+00  0.00000000E+00  0.00000000E+00
 -2.73897949E-04  9.87254089E-05  0.00000000E+00  0.00000000E+00 -4.62347031E-04
 -3.24277273E-03  0.00000000E+00  0.00000000E+00 -2.93961160E-03  3.42494310E-04
  3.42494310E-04 -9.31417938E-04  0.00000000E+00  0.00000000E+00  0.00000000E+00
 -1.56731646E-01  3.02048164E-01  0.00000000E+00  0.00000000E+00  0.00000000E+00
  3.94334716E-02  0.00000000E+00  0.00000000E+00  0.00000000E+00 -2.96056136E-02
 -2.96056136E-02  3.05795144E-02  0.00000000E+00  0.00000000E+00  0.00000000E+00
 -1.34762411E-01  2.91124661E-01  0.00000000E+00  0.00000000E+00 -1.25690409E-01
  2.65383940E-01  0.00000000E+00  0.00000000E+00 -5.38492138E-02 -7.68989495E-03
 -7.68989495E-03  1.18893788E-02  0.00000000E+00  0.00000000E+00  0.00000000E+00
 -1.34762411E-01  2.91124661E-01  0.00000000E+00  0.00000000E+00  1.25690409E-01
  2.65383940E-01  0.00000000E+00  0.00000000E+00  5.38492138E-02 -7.68989495E-03
 -7.68989495E-03  1.18893788E-02  0.00000000E+00  0.00000000E+00  0.00000000E+00
  0.00000000E+00  0.00000000E+00  0.00000000E+00  0.00000000E+00  3.36394154E-01
  0.00000000E+00  0.00000000E+00  0.00000000E+00 -1.92397368E-02  0.00000000E+00
  0.00000000E+00  0.00000000E+00  0.00000000E+00  0.00000000E+00  0.00000000E+00
 -1.46886981E-01  3.25411608E-01  0.00000000E+00  0.00000000E+00 -1.30062307E-01
  2.69829642E-01  0.00000000E+00  0.00000000E+00 -2.20518459E-02 -5.32864992E-03
 -5.32864992E-03  7.20975305E-03  0.00000000E+00  0.00000000E+00  0.00000000E+00
  1.46886981E-01 -3.25411608E-01  0.00000000E+00  0.00000000E+00 -1.30062307E-01
 -2.69829642E-01  0.00000000E+00  0.00000000E+00 -2.20518459E-02  5.32864992E-03
  5.32864992E-03 -7.20975305E-03  0.00000000E+00  0.00000000E+00  0.00000000E+00
  1.35278815E-01 -3.14987955E-01  0.00000000E+00  0.00000000E+00  0.00000000E+00
 -1.89951545E-01  0.00000000E+00  0.00000000E+00  0.00000000E+00  1.20910824E-02
  1.20910824E-02  2.32593625E-02  0.00000000E+00  0.00000000E+00  0.00000000E+00
 -9.48764212E-02  2.11856995E-01  0.00000000E+00  0.00000000E+00  3.30472023E-01
  3.42660997E-01  0.00000000E+00  0.00000000E+00  1.72810869E-01  2.66635120E-03
  2.66635120E-03 -3.34731356E-02  0.00000000E+00  0.00000000E+00  0.00000000E+00
 -9.48764212E-02  2.11856995E-01  0.00000000E+00  0.00000000E+00 -3.30472023E-01
  3.42660997E-01  0.00000000E+00  0.00000000E+00 -1.72810869E-01  2.66635120E-03
  2.66635120E-03 -3.34731356E-02  0.00000000E+00  0.00000000E+00  0.00000000E+00
  0.00000000E+00  0.00000000E+00  0.00000000E+00  0.00000000E+00 -3.51224244E-01
  0.00000000E+00  0.00000000E+00  0.00000000E+00 -2.06078308E-04  0.00000000E+00
  0.00000000E+00  0.00000000E+00  0.00000000E+00  0.00000000E+00  0.00000000E+00
 -7.14764840E-02  1.56544249E-01  0.00000000E+00  0.00000000E+00  3.93471344E-01
  2.92107002E-01  0.00000000E+00  0.00000000E+00  1.82268638E-01  2.21230438E-03
  2.21230438E-03 -2.42600397E-02  0.00000000E+00  0.00000000E+00  0.00000000E+00
  7.14764840E-02 -1.56544249E-01  0.00000000E+00  0.00000000E+00  3.93471344E-01
 -2.92107002E-01  0.00000000E+00  0.00000000E+00  1.82268638E-01 -2.21230438E-03
 -2.21230438E-03  2.42600397E-02  0.00000000E+00  0.00000000E+00  0.00000000E+00
  0.00000000E+00  0.00000000E+00  4.01585021E-01  0.00000000E+00  0.00000000E+00
  0.00000000E+00  1.58364070E-01  0.00000000E+00  0.00000000E+00  0.00000000E+00
  0.00000000E+00  0.00000000E+00  0.00000000E+00  0.00000000E+00  0.00000000E+00
  0.00000000E+00  0.00000000E+00  3.51854785E-01  0.00000000E+00  0.00000000E+00
  0.00000000E+00  1.92660443E-01  0.00000000E+00  0.00000000E+00  0.00000000E+00
  0.00000000E+00  0.00000000E+00  0.00000000E+00 -2.88291769E-02  0.00000000E+00
  0.00000000E+00  0.00000000E+00  3.51854785E-01  0.00000000E+00  0.00000000E+00
  0.00000000E+00  1.92660443E-01  0.00000000E+00  0.00000000E+00  0.00000000E+00
  0.00000000E+00  0.00000000E+00  0.00000000E+00  2.88291769E-02  0.00000000E+00
  0.00000000E+00  0.00000000E+00  0.00000000E+00  4.01585021E-01  0.00000000E+00
  0.00000000E+00  0.00000000E+00  1.58364070E-01  0.00000000E+00  0.00000000E+00
  0.00000000E+00  0.00000000E+00  0.00000000E+00  0.00000000E+00  0.00000000E+00
  0.00000000E+00  0.00000000E+00  0.00000000E+00  3.51854785E-01  0.00000000E+00
  0.00000000E+00  0.00000000E+00  1.92660443E-01  0.00000000E+00  0.00000000E+00
  0.00000000E+00  0.00000000E+00  0.00000000E+00  0.00000000E+00 -2.88291769E-02
  0.00000000E+00  0.00000000E+00  0.00000000E+00  3.51854785E-01  0.00000000E+00
  0.00000000E+00  0.00000000E+00  1.92660443E-01  0.00000000E+00  0.00000000E+00
  0.00000000E+00  0.00000000E+00  0.00000000E+00  0.00000000E+00  2.88291769E-02
  0.00000000E+00  0.00000000E+00  0.00000000E+00  0.00000000E+00  0.00000000E+00
  0.00000000E+00  0.00000000E+00  0.00000000E+00  0.00000000E+00  0.00000000E+00
  0.00000000E+00  0.00000000E+00  0.00000000E+00  5.77084093E-02  0.00000000E+00
  0.00000000E+00  0.00000000E+00  4.72517803E-01  0.00000000E+00  0.00000000E+00
  0.00000000E+00  3.27902828E-01  0.00000000E+00  0.00000000E+00  0.00000000E+00
  0.00000000E+00  0.00000000E+00  0.00000000E+00 -2.23514052E-02  0.00000000E+00
  0.00000000E+00  0.00000000E+00 -4.72517803E-01  0.00000000E+00  0.00000000E+00
  0.00000000E+00 -3.27902828E-01  0.00000000E+00  0.00000000E+00  0.00000000E+00
  0.00000000E+00  0.00000000E+00  0.00000000E+00 -2.23514052E-02  0.00000000E+00
  0.00000000E+00  0.00000000E+00  0.00000000E+00  0.00000000E+00  0.00000000E+00
  0.00000000E+00  0.00000000E+00  0.00000000E+00  0.00000000E+00  0.00000000E+00
  0.00000000E+00  0.00000000E+00  0.00000000E+00  0.00000000E+00  5.77084093E-02
  0.00000000E+00  0.00000000E+00  0.00000000E+00  4.72517803E-01  0.00000000E+00
  0.00000000E+00  0.00000000E+00  3.27902828E-01  0.00000000E+00  0.00000000E+00
  0.00000000E+00  0.00000000E+00  0.00000000E+00  0.00000000E+00 -2.23514052E-02
  0.00000000E+00  0.00000000E+00  0.00000000E+00 -4.72517803E-01  0.00000000E+00
  0.00000000E+00  0.00000000E+00 -3.27902828E-01  0.00000000E+00  0.00000000E+00
  0.00000000E+00  0.00000000E+00  0.00000000E+00  0.00000000E+00 -2.23514052E-02
  0.00000000E+00  0.00000000E+00  6.00119163E-01  0.00000000E+00  0.00000000E+00
  0.00000000E+00  5.95369580E-01  0.00000000E+00  0.00000000E+00  0.00000000E+00
  0.00000000E+00  0.00000000E+00  0.00000000E+00  0.00000000E+00  0.00000000E+00
  0.00000000E+00  0.00000000E+00 -3.76407669E-01  0.00000000E+00  0.00000000E+00
  0.00000000E+00 -3.92593425E-01  0.00000000E+00  0.00000000E+00  0.00000000E+00
  0.00000000E+00  0.00000000E+00  0.00000000E+00 -1.48227755E-02  0.00000000E+00
  0.00000000E+00  0.00000000E+00 -3.76407669E-01  0.00000000E+00  0.00000000E+00
  0.00000000E+00 -3.92593425E-01  0.00000000E+00  0.00000000E+00  0.00000000E+00
  0.00000000E+00  0.00000000E+00  0.00000000E+00  1.48227755E-02  0.00000000E+00
  0.00000000E+00  0.00000000E+00  0.00000000E+00  6.00119163E-01  0.00000000E+00
  0.00000000E+00  0.00000000E+00  5.95369580E-01  0.00000000E+00  0.00000000E+00
  0.00000000E+00  0.00000000E+00  0.00000000E+00  0.00000000E+00  0.00000000E+00
  0.00000000E+00  0.00000000E+00  0.00000000E+00 -3.76407669E-01  0.00000000E+00
  0.00000000E+00  0.00000000E+00 -3.92593425E-01  0.00000000E+00  0.00000000E+00
  0.00000000E+00  0.00000000E+00  0.00000000E+00  0.00000000E+00 -1.48227755E-02
  0.00000000E+00  0.00000000E+00  0.00000000E+00 -3.76407669E-01  0.00000000E+00
  0.00000000E+00  0.00000000E+00 -3.92593425E-01  0.00000000E+00  0.00000000E+00
  0.00000000E+00  0.00000000E+00  0.00000000E+00  0.00000000E+00  1.48227755E-02
 -9.95524956E-02  6.38511513E-02  0.00000000E+00  0.00000000E+00  0.00000000E+00
  2.23058987E+00  0.00000000E+00  0.00000000E+00  0.00000000E+00  2.10661985E-02
  2.10661985E-02 -4.07545809E-02  0.00000000E+00  0.00000000E+00  0.00000000E+00
  7.59883144E-02 -1.74673925E-01  0.00000000E+00  0.00000000E+00  2.98217586E-01
 -8.68048016E-01  0.00000000E+00  0.00000000E+00  5.58700759E-01  2.16594954E-02
  2.16594954E-02 -3.12417366E-02  0.00000000E+00  0.00000000E+00  0.00000000E+00
  7.59883144E-02 -1.74673925E-01  0.00000000E+00  0.00000000E+00 -2.98217586E-01
 -8.68048016E-01  0.00000000E+00  0.00000000E+00 -5.58700759E-01  2.16594954E-02
  2.16594954E-02 -3.12417366E-02  0.00000000E+00  0.00000000E+00  0.00000000E+00
  0.00000000E+00  0.00000000E+00  0.00000000E+00  0.00000000E+00  6.57328489E-02
  0.00000000E+00  0.00000000E+00  0.00000000E+00  4.14222615E+00  0.00000000E+00
  0.00000000E+00  0.00000000E+00  0.00000000E+00  0.00000000E+00  0.00000000E+00
  1.02538707E-01 -2.54408820E-02  0.00000000E+00  0.00000000E+00 -9.50590304E-02
 -3.00064788E+00  0.00000000E+00  0.00000000E+00  8.75306008E-01  8.15861422E-02
  8.15861422E-02  8.27587027E-03  0.00000000E+00  0.00000000E+00  0.00000000E+00
 -1.02538707E-01  2.54408820E-02  0.00000000E+00  0.00000000E+00 -9.50590304E-02
  3.00064788E+00  0.00000000E+00  0.00000000E+00  8.75306008E-01 -8.15861422E-02
 -8.15861422E-02 -8.27587027E-03  0.00000000E+00  0.00000000E+00  0.00000000E+00
  0.00000000E+00  0.00000000E+00 -9.25632349E-01  0.00000000E+00  0.00000000E+00
  0.00000000E+00  1.31072708E+00  0.00000000E+00  0.00000000E+00  0.00000000E+00
  0.00000000E+00  0.00000000E+00  0.00000000E+00  0.00000000E+00  0.00000000E+00
  0.00000000E+00  0.00000000E+00 -1.18369038E-01  0.00000000E+00  0.00000000E+00
  0.00000000E+00 -1.39648835E-01  0.00000000E+00  0.00000000E+00  0.00000000E+00
  0.00000000E+00  0.00000000E+00  0.00000000E+00  6.16567975E-02  0.00000000E+00
  0.00000000E+00  0.00000000E+00 -1.18369038E-01  0.00000000E+00  0.00000000E+00
  0.00000000E+00 -1.39648835E-01  0.00000000E+00  0.00000000E+00  0.00000000E+00
  0.00000000E+00  0.00000000E+00  0.00000000E+00 -6.16567975E-02  0.00000000E+00
  0.00000000E+00  0.00000000E+00  0.00000000E+00 -9.25632349E-01  0.00000000E+00
  0.00000000E+00  0.00000000E+00  1.31072708E+00  0.00000000E+00  0.00000000E+00
  0.00000000E+00  0.00000000E+00  0.00000000E+00  0.00000000E+00  0.00000000E+00
  0.00000000E+00  0.00000000E+00  0.00000000E+00 -1.18369038E-01  0.00000000E+00
  0.00000000E+00  0.00000000E+00 -1.39648835E-01  0.00000000E+00  0.00000000E+00
  0.00000000E+00  0.00000000E+00  0.00000000E+00  0.00000000E+00  6.16567975E-02
  0.00000000E+00  0.00000000E+00  0.00000000E+00 -1.18369038E-01  0.00000000E+00
  0.00000000E+00  0.00000000E+00 -1.39648835E-01  0.00000000E+00  0.00000000E+00
  0.00000000E+00  0.00000000E+00  0.00000000E+00  0.00000000E+00 -6.16567975E-02
  1.28753631E-01 -1.11266016E+00  0.00000000E+00  0.00000000E+00  0.00000000E+00
  2.06608574E+00  0.00000000E+00  0.00000000E+00  0.00000000E+00 -1.49841194E-01
 -1.49841194E-01  3.03225340E-01  0.00000000E+00  0.00000000E+00  0.00000000E+00
 -1.04567045E-02  1.19089065E-02  0.00000000E+00  0.00000000E+00 -3.78559977E-01
 -5.36631720E-01  0.00000000E+00  0.00000000E+00  4.49201228E-01  4.12353439E-02
  4.12353439E-02 -2.26019516E-01  0.00000000E+00  0.00000000E+00  0.00000000E+00
 -1.04567045E-02  1.19089065E-02  0.00000000E+00  0.00000000E+00  3.78559977E-01
 -5.36631720E-01  0.00000000E+00  0.00000000E+00 -4.49201228E-01  4.12353439E-02
  4.12353439E-02 -2.26019516E-01  0.00000000E+00  0.00000000E+00  0.00000000E+00
  0.00000000E+00  0.00000000E+00  0.00000000E+00  0.00000000E+00  1.09233879E+00
  0.00000000E+00  0.00000000E+00  0.00000000E+00 -1.98547771E-01  0.00000000E+00
  0.00000000E+00  0.00000000E+00  0.00000000E+00  0.00000000E+00  0.00000000E+00
  4.52455469E-02 -2.49888122E-01  0.00000000E+00  0.00000000E+00 -1.08632757E-02
 -1.20302051E-01  0.00000000E+00  0.00000000E+00  8.61707350E-01 -9.61768563E-02
 -9.61768563E-02  5.88975593E-02  0.00000000E+00  0.00000000E+00  0.00000000E+00
 -4.52455469E-02  2.49888122E-01  0.00000000E+00  0.00000000E+00 -1.08632757E-02
  1.20302051E-01  0.00000000E+00  0.00000000E+00  8.61707350E-01  9.61768563E-02
  9.61768563E-02 -5.88975593E-02  0.00000000E+00  0.00000000E+00  0.00000000E+00
  5.26204163E-02  1.07539878E+00  0.00000000E+00  0.00000000E+00  0.00000000E+00
  1.65680117E-02  0.00000000E+00  0.00000000E+00  0.00000000E+00 -1.37745582E-02
 -1.37745582E-02  3.43954135E-01  0.00000000E+00  0.00000000E+00  0.00000000E+00
  1.43738506E-02 -3.78010770E-01  0.00000000E+00  0.00000000E+00 -3.27465365E-01
  2.55266322E-01  0.00000000E+00  0.00000000E+00  1.00498290E+00 -1.27851469E-01
 -1.27851469E-01 -1.98274380E-01  0.00000000E+00  0.00000000E+00  0.00000000E+00
  1.43738506E-02 -3.78010770E-01  0.00000000E+00  0.00000000E+00  3.27465365E-01
  2.55266322E-01  0.00000000E+00  0.00000000E+00 -1.00498290E+00 -1.27851469E-01
 -1.27851469E-01 -1.98274380E-01  0.00000000E+00  0.00000000E+00  0.00000000E+00
  0.00000000E+00  0.00000000E+00  0.00000000E+00  0.00000000E+00  0.00000000E+00
  0.00000000E+00  0.00000000E+00  0.00000000E+00  0.00000000E+00  0.00000000E+00
  0.00000000E+00  0.00000000E+00  0.00000000E+00 -1.32548903E-01  0.00000000E+00
  0.00000000E+00  0.00000000E+00 -6.48289266E-01  0.00000000E+00  0.00000000E+00
  0.00000000E+00  8.11499855E-01  0.00000000E+00  0.00000000E+00  0.00000000E+00
  0.00000000E+00  0.00000000E+00  0.00000000E+00  7.53258461E-03  0.00000000E+00
  0.00000000E+00  0.00000000E+00  6.48289266E-01  0.00000000E+00  0.00000000E+00
  0.00000000E+00 -8.11499855E-01  0.00000000E+00  0.00000000E+00  0.00000000E+00
  0.00000000E+00  0.00000000E+00  0.00000000E+00  7.53258461E-03  0.00000000E+00
  0.00000000E+00  0.00000000E+00  0.00000000E+00  0.00000000E+00  0.00000000E+00
  0.00000000E+00  0.00000000E+00  0.00000000E+00  0.00000000E+00  0.00000000E+00
  0.00000000E+00  0.00000000E+00  0.00000000E+00  0.00000000E+00 -1.32548903E-01
  0.00000000E+00  0.00000000E+00  0.00000000E+00 -6.48289266E-01  0.00000000E+00
  0.00000000E+00  0.00000000E+00  8.11499855E-01  0.00000000E+00  0.00000000E+00
  0.00000000E+00  0.00000000E+00  0.00000000E+00  0.00000000E+00  7.53258461E-03
  0.00000000E+00  0.00000000E+00  0.00000000E+00  6.48289266E-01  0.00000000E+00
  0.00000000E+00  0.00000000E+00 -8.11499855E-01  0.00000000E+00  0.00000000E+00
  0.00000000E+00  0.00000000E+00  0.00000000E+00  0.00000000E+00  7.53258461E-03
  0.00000000E+00  0.00000000E+00  0.00000000E+00  0.00000000E+00 -5.54284233E-01
  0.00000000E+00  0.00000000E+00  0.00000000E+00 -9.52774563E-01  0.00000000E+00
  0.00000000E+00  0.00000000E+00  0.00000000E+00  0.00000000E+00  0.00000000E+00
 -5.03201954E-02  1.92587809E-02  0.00000000E+00  0.00000000E+00 -7.38432812E-01
  1.01710165E+00  0.00000000E+00  0.00000000E+00  4.04327676E-01 -4.19843173E-02
 -4.19843173E-02 -1.62782461E-01  0.00000000E+00  0.00000000E+00  0.00000000E+00
  5.03201954E-02 -1.92587809E-02  0.00000000E+00  0.00000000E+00 -7.38432812E-01
 -1.01710165E+00  0.00000000E+00  0.00000000E+00  4.04327676E-01  4.19843173E-02
  4.19843173E-02  1.62782461E-01  0.00000000E+00  0.00000000E+00  0.00000000E+00
  0.00000000E+00  0.00000000E+00  1.81291793E-01  0.00000000E+00  0.00000000E+00
  0.00000000E+00 -1.05022457E+00  0.00000000E+00  0.00000000E+00  0.00000000E+00
  0.00000000E+00  0.00000000E+00  0.00000000E+00  0.00000000E+00  0.00000000E+00
  0.00000000E+00  0.00000000E+00 -6.43342210E-01  0.00000000E+00  0.00000000E+00
  0.00000000E+00  1.11581183E+00  0.00000000E+00  0.00000000E+00  0.00000000E+00
  0.00000000E+00  0.00000000E+00  0.00000000E+00  7.42847202E-02  0.00000000E+00
  0.00000000E+00  0.00000000E+00 -6.43342210E-01  0.00000000E+00  0.00000000E+00
  0.00000000E+00  1.11581183E+00  0.00000000E+00  0.00000000E+00  0.00000000E+00
  0.00000000E+00  0.00000000E+00  0.00000000E+00 -7.42847202E-02  0.00000000E+00
  0.00000000E+00  0.00000000E+00  0.00000000E+00  1.81291793E-01  0.00000000E+00
  0.00000000E+00  0.00000000E+00 -1.05022457E+00  0.00000000E+00  0.00000000E+00
  0.00000000E+00  0.00000000E+00  0.00000000E+00  0.00000000E+00  0.00000000E+00
  0.00000000E+00  0.00000000E+00  0.00000000E+00 -6.43342210E-01  0.00000000E+00
  0.00000000E+00  0.00000000E+00  1.11581183E+00  0.00000000E+00  0.00000000E+00
  0.00000000E+00  0.00000000E+00  0.00000000E+00  0.00000000E+00  7.42847202E-02
  0.00000000E+00  0.00000000E+00  0.00000000E+00 -6.43342210E-01  0.00000000E+00
  0.00000000E+00  0.00000000E+00  1.11581183E+00  0.00000000E+00  0.00000000E+00
  0.00000000E+00  0.00000000E+00  0.00000000E+00  0.00000000E+00 -7.42847202E-02
  5.07067773E-02  3.95447879E-01  0.00000000E+00  0.00000000E+00  0.00000000E+00