 Entering Gaussian System, Link 0=g09
 Initial command:
 /software/user_tools/current/cades-bsd/gaussian/bin//g09/l1.exe "/lustre/or-scratch/cades-cnms/hzu/g09-scr//2757540/Gau-26755.inp" -scrdir="/lustre/or-scratch/cades-cnms/hzu/g09-scr//2757540/"
 Entering Link 1 = /software/user_tools/current/cades-bsd/gaussian/bin//g09/l1.exe PID=     26756.
  
 Copyright (c) 1988,1990,1992,1993,1995,1998,2003,2009,2015,
            Gaussian, Inc.  All Rights Reserved.
  
 This is part of the Gaussian(R) 09 program.  It is based on
 the Gaussian(R) 03 system (copyright 2003, Gaussian, Inc.),
 the Gaussian(R) 98 system (copyright 1998, Gaussian, Inc.),
 the Gaussian(R) 94 system (copyright 1995, Gaussian, Inc.),
 the Gaussian 92(TM) system (copyright 1992, Gaussian, Inc.),
 the Gaussian 90(TM) system (copyright 1990, Gaussian, Inc.),
 the Gaussian 88(TM) system (copyright 1988, Gaussian, Inc.),
 the Gaussian 86(TM) system (copyright 1986, Carnegie Mellon
 University), and the Gaussian 82(TM) system (copyright 1983,
 Carnegie Mellon University). Gaussian is a federally registered
 trademark of Gaussian, Inc.
  
 This software contains proprietary and confidential information,
 including trade secrets, belonging to Gaussian, Inc.
  
 This software is provided under written license and may be
 used, copied, transmitted, or stored only in accord with that
 written license.
  
 The following legend is applicable only to US Government
 contracts under FAR:
  
                    RESTRICTED RIGHTS LEGEND
  
 Use, reproduction and disclosure by the US Government is
 subject to restrictions as set forth in subparagraphs (a)
 and (c) of the Commercial Computer Software - Restricted
 Rights clause in FAR 52.227-19.
  
 Gaussian, Inc.
 340 Quinnipiac St., Bldg. 40, Wallingford CT 06492
  
  
 ---------------------------------------------------------------
 Warning -- This program may not be used in any manner that
 competes with the business of Gaussian, Inc. or will provide
 assistance to any competitor of Gaussian, Inc.  The licensee
 of this program is prohibited from giving any competitor of
 Gaussian, Inc. access to this program.  By using this program,
 the user acknowledges that Gaussian, Inc. is engaged in the
 business of creating and licensing software in the field of
 computational chemistry and represents and warrants to the
 licensee that it is not a competitor of Gaussian, Inc. and that
 it will not use this program in any manner prohibited above.
 ---------------------------------------------------------------
  

 Cite this work as:
 Gaussian 09, Revision E.01,
 M. J. Frisch, G. W. Trucks, H. B. Schlegel, G. E. Scuseria, 
 M. A. Robb, J. R. Cheeseman, G. Scalmani, V. Barone, B. Mennucci, 
 G. A. Petersson, H. Nakatsuji, M. Caricato, X. Li, H. P. Hratchian, 
 A. F. Izmaylov, J. Bloino, G. Zheng, J. L. Sonnenberg, M. Hada, 
 M. Ehara, K. Toyota, R. Fukuda, J. Hasegawa, M. Ishida, T. Nakajima, 
 Y. Honda, O. Kitao, H. Nakai, T. Vreven, J. A. Montgomery, Jr., 
 J. E. Peralta, F. Ogliaro, M. Bearpark, J. J. Heyd, E. Brothers, 
 K. N. Kudin, V. N. Staroverov, T. Keith, R. Kobayashi, J. Normand, 
 K. Raghavachari, A. Rendell, J. C. Burant, S. S. Iyengar, J. Tomasi, 
 M. Cossi, N. Rega, J. M. Millam, M. Klene, J. E. Knox, J. B. Cross, 
 V. Bakken, C. Adamo, J. Jaramillo, R. Gomperts, R. E. Stratmann, 
 O. Yazyev, A. J. Austin, R. Cammi, C. Pomelli, J. W. Ochterski, 
 R. L. Martin, K. Morokuma, V. G. Zakrzewski, G. A. Voth, 
 P. Salvador, J. J. Dannenberg, S. Dapprich, A. D. Daniels, 
 O. Farkas, J. B. Foresman, J. V. Ortiz, J. Cioslowski, 
 and D. J. Fox, Gaussian, Inc., Wallingford CT, 2013.
 
 ******************************************
 Gaussian 09:  ES64L-G09RevE.01 30-Nov-2015
                27-Jun-2022 
 ******************************************
 %Mem=100gb
 %NProcLinda=1
 Will use up to    1 processors via Linda.
 %NProcShared=36
 Will use up to   36 processors via shared memory.
 %chk=CO2.chk
 ----------------------------------
 #B3LYP/6-31G* IOP(7/33=4) Opt Freq
 ----------------------------------
 1/14=-1,18=20,19=15,26=3,38=1/1,3;
 2/9=110,12=2,17=6,18=5,40=1/2;
 3/5=1,6=6,7=1,11=2,16=1,25=1,30=1,71=1,74=-5/1,2,3;
 4//1;
 5/5=2,38=5/2;
 6/7=2,8=2,9=2,10=2,28=1/1;
 7/33=4/1,2,3,16;
 1/14=-1,18=20,19=15,26=3/3(2);
 2/9=110/2;
 99//99;
 2/9=110/2;
 3/5=1,6=6,7=1,11=2,16=1,25=1,30=1,71=1,74=-5/1,2,3;
 4/5=5,16=3,69=1/1;
 5/5=2,38=5/2;
 7/33=4/1,2,3,16;
 1/14=-1,18=20,19=15,26=3/3(-5);
 2/9=110/2;
 6/7=2,8=2,9=2,10=2,19=2,28=1/1;
 99/9=1/99;
 --------
 CO2 test
 --------
 Symbolic Z-matrix:
 Charge =  0 Multiplicity = 1
 C
 O                    1     1.16 
 O                    1     1.16     2     180. 
 

 GradGradGradGradGradGradGradGradGradGradGradGradGradGradGradGradGradGrad
 Berny optimization.
 Initialization pass.
                           ----------------------------
                           !    Initial Parameters    !
                           ! (Angstroms and Degrees)  !
 --------------------------                            --------------------------
 ! Name  Definition              Value          Derivative Info.                !
 --------------------------------------------------------------------------------
 ! R1    R(1,2)                  1.16           estimate D2E/DX2                !
 ! R2    R(1,3)                  1.16           estimate D2E/DX2                !
 ! A1    L(2,1,3,-1,-1)        180.0            estimate D2E/DX2                !
 ! A2    L(2,1,3,-2,-2)        180.0            estimate D2E/DX2                !
 --------------------------------------------------------------------------------
 Trust Radius=3.00D-01 FncErr=1.00D-07 GrdErr=1.00D-06
 Number of steps in this run=     20 maximum allowed number of steps=    100.
 GradGradGradGradGradGradGradGradGradGradGradGradGradGradGradGradGradGrad

                          Input orientation:                          
 ---------------------------------------------------------------------
 Center     Atomic      Atomic             Coordinates (Angstroms)
 Number     Number       Type             X           Y           Z
 ---------------------------------------------------------------------
      1          6           0        0.000000    0.000000    0.000000
      2          8           0        0.000000    0.000000    1.160000
      3          8           0        0.000000    0.000000   -1.160000
 ---------------------------------------------------------------------
                    Distance matrix (angstroms):
                    1          2          3
     1  C    0.000000
     2  O    1.160000   0.000000
     3  O    1.160000   2.320000   0.000000
 Stoichiometry    CO2
 Framework group  D*H[O(C),C*(O.O)]
 Deg. of freedom     1
 Full point group                 D*H     NOp   8
 Largest Abelian subgroup         D2H     NOp   8
 Largest concise Abelian subgroup C2      NOp   2
                         Standard orientation:                         
 ---------------------------------------------------------------------
 Center     Atomic      Atomic             Coordinates (Angstroms)
 Number     Number       Type             X           Y           Z
 ---------------------------------------------------------------------
      1          6           0        0.000000    0.000000    0.000000
      2          8           0        0.000000    0.000000    1.160000
      3          8           0        0.000000    0.000000   -1.160000
 ---------------------------------------------------------------------
 Rotational constants (GHZ):      0.0000000     11.7405731     11.7405731
 Standard basis: 6-31G(d) (6D, 7F)
 There are    14 symmetry adapted cartesian basis functions of AG  symmetry.
 There are     2 symmetry adapted cartesian basis functions of B1G symmetry.
 There are     4 symmetry adapted cartesian basis functions of B2G symmetry.
 There are     4 symmetry adapted cartesian basis functions of B3G symmetry.
 There are     1 symmetry adapted cartesian basis functions of AU  symmetry.
 There are    10 symmetry adapted cartesian basis functions of B1U symmetry.
 There are     5 symmetry adapted cartesian basis functions of B2U symmetry.
 There are     5 symmetry adapted cartesian basis functions of B3U symmetry.
 There are    14 symmetry adapted basis functions of AG  symmetry.
 There are     2 symmetry adapted basis functions of B1G symmetry.
 There are     4 symmetry adapted basis functions of B2G symmetry.
 There are     4 symmetry adapted basis functions of B3G symmetry.
 There are     1 symmetry adapted basis functions of AU  symmetry.
 There are    10 symmetry adapted basis functions of B1U symmetry.
 There are     5 symmetry adapted basis functions of B2U symmetry.
 There are     5 symmetry adapted basis functions of B3U symmetry.
    45 basis functions,    84 primitive gaussians,    45 cartesian basis functions
    11 alpha electrons       11 beta electrons
       nuclear repulsion energy        58.3919678444 Hartrees.
 NAtoms=    3 NActive=    3 NUniq=    2 SFac= 2.25D+00 NAtFMM=   60 NAOKFM=F Big=F
 Integral buffers will be    131072 words long.
 Raffenetti 2 integral format.
 Two-electron integral symmetry is turned on.
 One-electron integrals computed using PRISM.
 NBasis=    45 RedAO= T EigKep=  4.44D-03  NBF=    14     2     4     4     1    10     5     5
 NBsUse=    45 1.00D-06 EigRej= -1.00D+00 NBFU=    14     2     4     4     1    10     5     5
 ExpMin= 1.69D-01 ExpMax= 5.48D+03 ExpMxC= 8.25D+02 IAcc=1 IRadAn=         1 AccDes= 0.00D+00
 Harris functional with IExCor=  402 and IRadAn=       1 diagonalized for initial guess.
 HarFok:  IExCor=  402 AccDes= 0.00D+00 IRadAn=         1 IDoV= 1 UseB2=F ITyADJ=14
 ICtDFT=  3500011 ScaDFX=  1.000000  1.000000  1.000000  1.000000
 FoFCou: FMM=F IPFlag=           0 FMFlag=      100000 FMFlg1=           0
         NFxFlg=           0 DoJE=T BraDBF=F KetDBF=T FulRan=T
         wScrn=  0.000000 ICntrl=     500 IOpCl=  0 I1Cent=   200000004 NGrid=           0
         NMat0=    1 NMatS0=      1 NMatT0=    0 NMatD0=    1 NMtDS0=    0 NMtDT0=    0
 Petite list used in FoFCou.
 Initial guess orbital symmetries:
       Occupied  (SGG) (SGU) (SGG) (SGG) (SGU) (SGG) (SGU) (PIU)
                 (PIU) (PIG) (PIG)
       Virtual   (PIU) (PIU) (SGG) (SGU) (PIU) (PIU) (SGG) (SGU)
                 (SGG) (PIG) (PIG) (SGU) (PIU) (PIU) (SGG) (PIG)
                 (PIG) (DLTG) (DLTG) (DLTU) (DLTU) (SGU) (DLTG)
                 (DLTG) (PIU) (PIU) (SGG) (SGU) (PIG) (PIG) (SGG)
                 (SGG) (SGG) (SGU)
 The electronic state of the initial guess is 1-SGG.
 Keep R1 ints in memory in symmetry-blocked form, NReq=1432812.
 Requested convergence on RMS density matrix=1.00D-08 within 128 cycles.
 Requested convergence on MAX density matrix=1.00D-06.
 Requested convergence on             energy=1.00D-06.
 No special actions if energy rises.
 Integral accuracy reduced to 1.0D-05 until final iterations.
 Initial convergence to 1.0D-05 achieved.  Increase integral accuracy.
 SCF Done:  E(RB3LYP) =  -188.580590858     A.U. after    9 cycles
            NFock=  9  Conv=0.21D-08     -V/T= 2.0085

 **********************************************************************

            Population analysis using the SCF density.

 **********************************************************************

 Orbital symmetries:
       Occupied  (SGG) (SGU) (SGG) (SGG) (SGU) (SGG) (SGU) (PIU)
                 (PIU) (PIG) (PIG)
       Virtual   (PIU) (PIU) (SGG) (SGU) (PIU) (PIU) (SGG) (SGU)
                 (SGG) (PIG) (PIG) (PIU) (PIU) (SGU) (SGG) (DLTG)
                 (DLTG) (PIG) (PIG) (DLTU) (DLTU) (SGU) (DLTG)
                 (DLTG) (PIU) (PIU) (SGG) (SGU) (PIG) (PIG) (SGG)
                 (SGG) (SGG) (SGU)
 The electronic state is 1-SGG.
 Alpha  occ. eigenvalues --  -19.23459 -19.23458 -10.38194  -1.16524  -1.12393
 Alpha  occ. eigenvalues --   -0.56062  -0.51678  -0.51593  -0.51593  -0.37026
 Alpha  occ. eigenvalues --   -0.37026
 Alpha virt. eigenvalues --    0.03635   0.03635   0.08901   0.36532   0.47129
 Alpha virt. eigenvalues --    0.47129   0.59099   0.74265   0.78191   0.87452
 Alpha virt. eigenvalues --    0.87452   1.04428   1.04428   1.05608   1.38235
 Alpha virt. eigenvalues --    1.39036   1.39036   1.41395   1.41395   1.72556
 Alpha virt. eigenvalues --    1.72556   1.83462   2.03586   2.03586   2.13519
 Alpha virt. eigenvalues --    2.13519   2.75132   2.92628   2.96997   2.96997
 Alpha virt. eigenvalues --    3.06620   3.75496   4.41020   4.46046
          Condensed to atoms (all electrons):
               1          2          3
     1  C    4.089623   0.596714   0.596714
     2  O    0.596714   7.782800  -0.021040
     3  O    0.596714  -0.021040   7.782800
 Mulliken charges:
               1
     1  C    0.716949
     2  O   -0.358474
     3  O   -0.358474
 Sum of Mulliken charges =   0.00000
 Mulliken charges with hydrogens summed into heavy atoms:
               1
     1  C    0.716949
     2  O   -0.358474
     3  O   -0.358474
 Electronic spatial extent (au):  <R**2>=            112.3457
 Charge=              0.0000 electrons
 Dipole moment (field-independent basis, Debye):
    X=             -0.0000    Y=              0.0000    Z=              0.0000  Tot=              0.0000
 Quadrupole moment (field-independent basis, Debye-Ang):
   XX=            -14.4072   YY=            -14.4072   ZZ=            -18.8833
   XY=              0.0000   XZ=              0.0000   YZ=              0.0000
 Traceless Quadrupole moment (field-independent basis, Debye-Ang):
   XX=              1.4920   YY=              1.4920   ZZ=             -2.9840
   XY=              0.0000   XZ=              0.0000   YZ=              0.0000
 Octapole moment (field-independent basis, Debye-Ang**2):
  XXX=             -0.0000  YYY=             -0.0000  ZZZ=              0.0000  XYY=             -0.0000
  XXY=             -0.0000  XXZ=              0.0000  XZZ=             -0.0000  YZZ=             -0.0000
  YYZ=              0.0000  XYZ=             -0.0000
 Hexadecapole moment (field-independent basis, Debye-Ang**3):
 XXXX=            -10.2910 YYYY=            -10.2910 ZZZZ=            -99.1570 XXXY=              0.0000
 XXXZ=              0.0000 YYYX=              0.0000 YYYZ=              0.0000 ZZZX=              0.0000
 ZZZY=              0.0000 XXYY=             -3.4303 XXZZ=            -17.8206 YYZZ=            -17.8206
 XXYZ=              0.0000 YYXZ=              0.0000 ZZXY=             -0.0000
 N-N= 5.839196784441D+01 E-N=-5.598661233797D+02  KE= 1.870003101037D+02
 Symmetry AG   KE= 1.009274115386D+02
 Symmetry B1G  KE= 1.157064793338D-33
 Symmetry B2G  KE= 4.901755232917D+00
 Symmetry B3G  KE= 4.901755232917D+00
 Symmetry AU   KE= 2.000333465073D-34
 Symmetry B1U  KE= 6.903885090260D+01
 Symmetry B2U  KE= 3.615268598349D+00
 Symmetry B3U  KE= 3.615268598349D+00
 GetPCM: File not found, return IValue=0.
 Pair potential:
 LT D matrices:
                1             2             3             4             5 
      1  0.205790D+01
      2 -0.810728D-01  0.382591D+00
      3  0.000000D+00  0.000000D+00  0.324338D+00
      4  0.000000D+00  0.000000D+00  0.000000D+00  0.324338D+00
      5  0.000000D+00  0.000000D+00  0.000000D+00  0.000000D+00  0.476645D+00
      6 -0.621303D-01  0.136324D+00  0.000000D+00  0.000000D+00  0.000000D+00
      7  0.000000D+00  0.000000D+00  0.125801D+00  0.000000D+00  0.000000D+00
      8  0.000000D+00  0.000000D+00  0.000000D+00  0.125801D+00  0.000000D+00
      9  0.000000D+00  0.000000D+00  0.000000D+00  0.000000D+00 -0.117833D-01
     10 -0.814287D-02 -0.266877D-01  0.000000D+00  0.000000D+00  0.000000D+00
     11 -0.814287D-02 -0.266877D-01  0.000000D+00  0.000000D+00  0.000000D+00
     12 -0.155884D-01  0.262777D-02  0.000000D+00  0.000000D+00  0.000000D+00
     13  0.000000D+00  0.000000D+00  0.000000D+00  0.000000D+00  0.000000D+00
     14  0.000000D+00  0.000000D+00  0.000000D+00  0.000000D+00  0.000000D+00
     15  0.000000D+00  0.000000D+00  0.000000D+00  0.000000D+00  0.000000D+00
     16  0.164257D-01 -0.227996D-01  0.000000D+00  0.000000D+00 -0.502447D-01
     17 -0.349611D-01  0.445910D-01  0.000000D+00  0.000000D+00  0.111563D+00
     18  0.000000D+00  0.000000D+00  0.283189D+00  0.000000D+00  0.000000D+00
     19  0.000000D+00  0.000000D+00  0.000000D+00  0.283189D+00  0.000000D+00
     20  0.130951D+00 -0.284191D+00  0.000000D+00  0.000000D+00 -0.365104D+00
     21  0.131308D-02 -0.524707D-01  0.000000D+00  0.000000D+00 -0.261483D-01
     22  0.000000D+00  0.000000D+00  0.154232D+00  0.000000D+00  0.000000D+00
     23  0.000000D+00  0.000000D+00  0.000000D+00  0.154232D+00  0.000000D+00
     24  0.703327D-01 -0.141399D+00  0.000000D+00  0.000000D+00 -0.140365D+00
     25  0.395358D-02 -0.651491D-02  0.000000D+00  0.000000D+00 -0.525323D-02
     26  0.395358D-02 -0.651491D-02  0.000000D+00  0.000000D+00 -0.525323D-02
     27 -0.148370D-01  0.284554D-01  0.000000D+00  0.000000D+00  0.220706D-01
     28  0.000000D+00  0.000000D+00  0.000000D+00  0.000000D+00  0.000000D+00
     29  0.000000D+00  0.000000D+00 -0.233822D-01  0.000000D+00  0.000000D+00
     30  0.000000D+00  0.000000D+00  0.000000D+00 -0.233822D-01  0.000000D+00
     31  0.164257D-01 -0.227996D-01  0.000000D+00  0.000000D+00  0.502447D-01
     32 -0.349611D-01  0.445910D-01  0.000000D+00  0.000000D+00 -0.111563D+00
     33  0.000000D+00  0.000000D+00  0.283189D+00  0.000000D+00  0.000000D+00
     34  0.000000D+00  0.000000D+00  0.000000D+00  0.283189D+00  0.000000D+00
     35 -0.130951D+00  0.284191D+00  0.000000D+00  0.000000D+00 -0.365104D+00
     36  0.131308D-02 -0.524707D-01  0.000000D+00  0.000000D+00  0.261483D-01
     37  0.000000D+00  0.000000D+00  0.154232D+00  0.000000D+00  0.000000D+00
     38  0.000000D+00  0.000000D+00  0.000000D+00  0.154232D+00  0.000000D+00
     39 -0.703327D-01  0.141399D+00  0.000000D+00  0.000000D+00 -0.140365D+00
     40  0.395358D-02 -0.651491D-02  0.000000D+00  0.000000D+00  0.525323D-02
     41  0.395358D-02 -0.651491D-02  0.000000D+00  0.000000D+00  0.525323D-02
     42 -0.148370D-01  0.284554D-01  0.000000D+00  0.000000D+00 -0.220706D-01
     43  0.000000D+00  0.000000D+00  0.000000D+00  0.000000D+00  0.000000D+00
     44  0.000000D+00  0.000000D+00  0.233822D-01  0.000000D+00  0.000000D+00
     45  0.000000D+00  0.000000D+00  0.000000D+00  0.233822D-01  0.000000D+00
                6             7             8             9            10 
      6  0.698665D-01
      7  0.000000D+00  0.487941D-01
      8  0.000000D+00  0.000000D+00  0.487941D-01
      9  0.000000D+00  0.000000D+00  0.000000D+00  0.649007D-03
     10 -0.658797D-02  0.000000D+00  0.000000D+00  0.000000D+00  0.230625D-02
     11 -0.658797D-02  0.000000D+00  0.000000D+00  0.000000D+00  0.230625D-02
     12 -0.656065D-02  0.000000D+00  0.000000D+00  0.000000D+00 -0.109521D-02
     13  0.000000D+00  0.000000D+00  0.000000D+00  0.000000D+00  0.000000D+00
     14  0.000000D+00  0.000000D+00  0.000000D+00  0.000000D+00  0.000000D+00
     15  0.000000D+00  0.000000D+00  0.000000D+00  0.000000D+00  0.000000D+00
     16  0.169339D-01  0.000000D+00  0.000000D+00 -0.568924D-02  0.576906D-02
     17 -0.561397D-01  0.000000D+00  0.000000D+00 -0.106413D-01 -0.123531D-01
     18  0.000000D+00  0.109840D+00  0.000000D+00  0.000000D+00  0.000000D+00
     19  0.000000D+00  0.000000D+00  0.109840D+00  0.000000D+00  0.000000D+00
     20 -0.131310D+00  0.000000D+00  0.000000D+00  0.501573D-02  0.155775D-01
     21 -0.105735D+00  0.000000D+00  0.000000D+00 -0.835500D-02 -0.762369D-02
     22  0.000000D+00  0.598217D-01  0.000000D+00  0.000000D+00  0.000000D+00
     23  0.000000D+00  0.000000D+00  0.598217D-01  0.000000D+00  0.000000D+00
     24 -0.680366D-01  0.000000D+00  0.000000D+00  0.100067D-02  0.737267D-02
     25 -0.157576D-02  0.000000D+00  0.000000D+00  0.269083D-03  0.531691D-03
     26 -0.157576D-02  0.000000D+00  0.000000D+00  0.269083D-03  0.531691D-03
     27  0.133906D-01  0.000000D+00  0.000000D+00 -0.194419D-03 -0.152624D-02
     28  0.000000D+00  0.000000D+00  0.000000D+00  0.000000D+00  0.000000D+00
     29  0.000000D+00 -0.906920D-02  0.000000D+00  0.000000D+00  0.000000D+00
     30  0.000000D+00  0.000000D+00 -0.906920D-02  0.000000D+00  0.000000D+00
     31  0.169339D-01  0.000000D+00  0.000000D+00  0.568924D-02  0.576906D-02
     32 -0.561397D-01  0.000000D+00  0.000000D+00  0.106413D-01 -0.123531D-01
     33  0.000000D+00  0.109840D+00  0.000000D+00  0.000000D+00  0.000000D+00
     34  0.000000D+00  0.000000D+00  0.109840D+00  0.000000D+00  0.000000D+00
     35  0.131310D+00  0.000000D+00  0.000000D+00  0.501573D-02 -0.155775D-01
     36 -0.105735D+00  0.000000D+00  0.000000D+00  0.835500D-02 -0.762369D-02
     37  0.000000D+00  0.598217D-01  0.000000D+00  0.000000D+00  0.000000D+00
     38  0.000000D+00  0.000000D+00  0.598217D-01  0.000000D+00  0.000000D+00
     39  0.680366D-01  0.000000D+00  0.000000D+00  0.100067D-02 -0.737267D-02
     40 -0.157576D-02  0.000000D+00  0.000000D+00 -0.269083D-03  0.531691D-03
     41 -0.157576D-02  0.000000D+00  0.000000D+00 -0.269083D-03  0.531691D-03
     42  0.133906D-01  0.000000D+00  0.000000D+00  0.194419D-03 -0.152624D-02
     43  0.000000D+00  0.000000D+00  0.000000D+00  0.000000D+00  0.000000D+00
     44  0.000000D+00  0.906920D-02  0.000000D+00  0.000000D+00  0.000000D+00
     45  0.000000D+00  0.000000D+00  0.906920D-02  0.000000D+00  0.000000D+00
               11            12            13            14            15 
     11  0.230625D-02
     12 -0.109521D-02  0.307662D-02
     13  0.000000D+00  0.000000D+00  0.000000D+00
     14  0.000000D+00  0.000000D+00  0.000000D+00  0.680706D-02
     15  0.000000D+00  0.000000D+00  0.000000D+00  0.000000D+00  0.680706D-02
     16  0.576906D-02 -0.174013D-01  0.000000D+00  0.000000D+00  0.000000D+00
     17 -0.123531D-01  0.275314D-01  0.000000D+00  0.000000D+00  0.000000D+00
     18  0.000000D+00  0.000000D+00  0.000000D+00  0.551401D-01  0.000000D+00
     19  0.000000D+00  0.000000D+00  0.000000D+00  0.000000D+00  0.551401D-01
     20  0.155775D-01  0.841092D-02  0.000000D+00  0.000000D+00  0.000000D+00
     21 -0.762369D-02  0.323929D-01  0.000000D+00  0.000000D+00  0.000000D+00
     22  0.000000D+00  0.000000D+00  0.000000D+00  0.382319D-01  0.000000D+00
     23  0.000000D+00  0.000000D+00  0.000000D+00  0.000000D+00  0.382319D-01
     24  0.737267D-02  0.514424D-02  0.000000D+00  0.000000D+00  0.000000D+00
     25  0.531691D-03 -0.296495D-03  0.000000D+00  0.000000D+00  0.000000D+00
     26  0.531691D-03 -0.296495D-03  0.000000D+00  0.000000D+00  0.000000D+00
     27 -0.152624D-02 -0.861514D-03  0.000000D+00  0.000000D+00  0.000000D+00
     28  0.000000D+00  0.000000D+00  0.000000D+00  0.000000D+00  0.000000D+00
     29  0.000000D+00  0.000000D+00  0.000000D+00 -0.261539D-02  0.000000D+00
     30  0.000000D+00  0.000000D+00  0.000000D+00  0.000000D+00 -0.261539D-02
     31  0.576906D-02 -0.174013D-01  0.000000D+00  0.000000D+00  0.000000D+00
     32 -0.123531D-01  0.275314D-01  0.000000D+00  0.000000D+00  0.000000D+00
     33  0.000000D+00  0.000000D+00  0.000000D+00 -0.551401D-01  0.000000D+00
     34  0.000000D+00  0.000000D+00  0.000000D+00  0.000000D+00 -0.551401D-01
     35 -0.155775D-01 -0.841092D-02  0.000000D+00  0.000000D+00  0.000000D+00
     36 -0.762369D-02  0.323929D-01  0.000000D+00  0.000000D+00  0.000000D+00
     37  0.000000D+00  0.000000D+00  0.000000D+00 -0.382319D-01  0.000000D+00
     38  0.000000D+00  0.000000D+00  0.000000D+00  0.000000D+00 -0.382319D-01
     39 -0.737267D-02 -0.514424D-02  0.000000D+00  0.000000D+00  0.000000D+00
     40  0.531691D-03 -0.296495D-03  0.000000D+00  0.000000D+00  0.000000D+00
     41  0.531691D-03 -0.296495D-03  0.000000D+00  0.000000D+00  0.000000D+00
     42 -0.152624D-02 -0.861514D-03  0.000000D+00  0.000000D+00  0.000000D+00
     43  0.000000D+00  0.000000D+00  0.000000D+00  0.000000D+00  0.000000D+00
     44  0.000000D+00  0.000000D+00  0.000000D+00 -0.261539D-02  0.000000D+00
     45  0.000000D+00  0.000000D+00  0.000000D+00  0.000000D+00 -0.261539D-02
               16            17            18            19            20 
     16  0.207842D+01
     17 -0.185518D+00  0.519396D+00
     18  0.000000D+00  0.000000D+00  0.693919D+00
     19  0.000000D+00  0.000000D+00  0.000000D+00  0.693919D+00
     20 -0.502183D-01  0.105057D+00  0.000000D+00  0.000000D+00  0.598914D+00
     21 -0.221623D+00  0.562811D+00  0.000000D+00  0.000000D+00  0.322839D+00
     22  0.000000D+00  0.000000D+00  0.444359D+00  0.000000D+00  0.000000D+00
     23  0.000000D+00  0.000000D+00  0.000000D+00  0.444359D+00  0.000000D+00
     24 -0.439609D-01  0.861581D-01  0.000000D+00  0.000000D+00  0.278243D+00
     25 -0.140869D-01 -0.643194D-02  0.000000D+00  0.000000D+00  0.720665D-02
     26 -0.140869D-01 -0.643194D-02  0.000000D+00  0.000000D+00  0.720665D-02
     27 -0.982525D-02 -0.105611D-01  0.000000D+00  0.000000D+00 -0.468757D-01
     28  0.000000D+00  0.000000D+00  0.000000D+00  0.000000D+00  0.000000D+00
     29  0.000000D+00  0.000000D+00 -0.416014D-01  0.000000D+00  0.000000D+00
     30  0.000000D+00  0.000000D+00  0.000000D+00 -0.416014D-01  0.000000D+00
     31  0.153030D-02  0.125248D-02  0.000000D+00  0.000000D+00 -0.122648D-01
     32  0.125248D-02 -0.253298D-02  0.000000D+00  0.000000D+00  0.287223D-01
     33  0.000000D+00  0.000000D+00 -0.199397D+00  0.000000D+00  0.000000D+00
     34  0.000000D+00  0.000000D+00  0.000000D+00 -0.199397D+00  0.000000D+00
     35  0.122648D-01 -0.287223D-01  0.000000D+00  0.000000D+00  0.909797D-01
     36 -0.229858D-01  0.341002D-01  0.000000D+00  0.000000D+00 -0.220056D-02
     37  0.000000D+00  0.000000D+00 -0.175030D+00  0.000000D+00  0.000000D+00
     38  0.000000D+00  0.000000D+00  0.000000D+00 -0.175030D+00  0.000000D+00
     39 -0.124375D-02  0.143288D-02  0.000000D+00  0.000000D+00  0.177965D-01
     40  0.917253D-03 -0.631039D-03  0.000000D+00  0.000000D+00  0.668668D-03
     41  0.917253D-03 -0.631039D-03  0.000000D+00  0.000000D+00  0.668668D-03
     42  0.407313D-02 -0.427494D-02  0.000000D+00  0.000000D+00 -0.453345D-02
     43  0.000000D+00  0.000000D+00  0.000000D+00  0.000000D+00  0.000000D+00
     44  0.000000D+00  0.000000D+00 -0.770091D-03  0.000000D+00  0.000000D+00
     45  0.000000D+00  0.000000D+00  0.000000D+00 -0.770091D-03  0.000000D+00
               21            22            23            24            25 
     21  0.687043D+00
     22  0.000000D+00  0.288072D+00
     23  0.000000D+00  0.000000D+00  0.288072D+00
     24  0.186860D+00  0.000000D+00  0.000000D+00  0.133531D+00
     25 -0.384300D-02  0.000000D+00  0.000000D+00  0.298141D-02  0.350737D-03
     26 -0.384300D-02  0.000000D+00  0.000000D+00  0.298141D-02  0.350737D-03
     27 -0.275463D-01  0.000000D+00  0.000000D+00 -0.223218D-01 -0.458552D-03
     28  0.000000D+00  0.000000D+00  0.000000D+00  0.000000D+00  0.000000D+00
     29  0.000000D+00 -0.258082D-01  0.000000D+00  0.000000D+00  0.000000D+00
     30  0.000000D+00  0.000000D+00 -0.258082D-01  0.000000D+00  0.000000D+00
     31 -0.229858D-01  0.000000D+00  0.000000D+00  0.124375D-02  0.917253D-03
     32  0.341002D-01  0.000000D+00  0.000000D+00 -0.143288D-02 -0.631039D-03
     33  0.000000D+00 -0.175030D+00  0.000000D+00  0.000000D+00  0.000000D+00
     34  0.000000D+00  0.000000D+00 -0.175030D+00  0.000000D+00  0.000000D+00
     35  0.220056D-02  0.000000D+00  0.000000D+00  0.177965D-01 -0.668668D-03
     36  0.610393D-01  0.000000D+00  0.000000D+00 -0.526369D-02 -0.709416D-03
     37  0.000000D+00 -0.141388D+00  0.000000D+00  0.000000D+00  0.000000D+00
     38  0.000000D+00  0.000000D+00 -0.141388D+00  0.000000D+00  0.000000D+00
     39  0.526369D-02  0.000000D+00  0.000000D+00 -0.598161D-03 -0.793119D-03
     40 -0.709416D-03  0.000000D+00  0.000000D+00  0.793119D-03  0.626959D-04
     41 -0.709416D-03  0.000000D+00  0.000000D+00  0.793119D-03  0.626959D-04
     42 -0.610688D-02  0.000000D+00  0.000000D+00 -0.406013D-02 -0.219401D-03
     43  0.000000D+00  0.000000D+00  0.000000D+00  0.000000D+00  0.000000D+00
     44  0.000000D+00 -0.357047D-02  0.000000D+00  0.000000D+00  0.000000D+00
     45  0.000000D+00  0.000000D+00 -0.357047D-02  0.000000D+00  0.000000D+00
               26            27            28            29            30 
     26  0.350737D-03
     27 -0.458552D-03  0.401589D-02
     28  0.000000D+00  0.000000D+00  0.000000D+00
     29  0.000000D+00  0.000000D+00  0.000000D+00  0.269054D-02
     30  0.000000D+00  0.000000D+00  0.000000D+00  0.000000D+00  0.269054D-02
     31  0.917253D-03  0.407313D-02  0.000000D+00  0.000000D+00  0.000000D+00
     32 -0.631039D-03 -0.427494D-02  0.000000D+00  0.000000D+00  0.000000D+00
     33  0.000000D+00  0.000000D+00  0.000000D+00  0.770091D-03  0.000000D+00
     34  0.000000D+00  0.000000D+00  0.000000D+00  0.000000D+00  0.770091D-03
     35 -0.668668D-03  0.453345D-02  0.000000D+00  0.000000D+00  0.000000D+00
     36 -0.709416D-03 -0.610688D-02  0.000000D+00  0.000000D+00  0.000000D+00
     37  0.000000D+00  0.000000D+00  0.000000D+00  0.357047D-02  0.000000D+00
     38  0.000000D+00  0.000000D+00  0.000000D+00  0.000000D+00  0.357047D-02
     39 -0.793119D-03  0.406013D-02  0.000000D+00  0.000000D+00  0.000000D+00
     40  0.626959D-04 -0.219401D-03  0.000000D+00  0.000000D+00  0.000000D+00
     41  0.626959D-04 -0.219401D-03  0.000000D+00  0.000000D+00  0.000000D+00
     42 -0.219401D-03  0.127176D-02  0.000000D+00  0.000000D+00  0.000000D+00
     43  0.000000D+00  0.000000D+00  0.000000D+00  0.000000D+00  0.000000D+00
     44  0.000000D+00  0.000000D+00  0.000000D+00 -0.680788D-03  0.000000D+00
     45  0.000000D+00  0.000000D+00  0.000000D+00  0.000000D+00 -0.680788D-03
               31            32            33            34            35 
     31  0.207842D+01
     32 -0.185518D+00  0.519396D+00
     33  0.000000D+00  0.000000D+00  0.693919D+00
     34  0.000000D+00  0.000000D+00  0.000000D+00  0.693919D+00
     35  0.502183D-01 -0.105057D+00  0.000000D+00  0.000000D+00  0.598914D+00
     36 -0.221623D+00  0.562811D+00  0.000000D+00  0.000000D+00 -0.322839D+00
     37  0.000000D+00  0.000000D+00  0.444359D+00  0.000000D+00  0.000000D+00
     38  0.000000D+00  0.000000D+00  0.000000D+00  0.444359D+00  0.000000D+00
     39  0.439609D-01 -0.861581D-01  0.000000D+00  0.000000D+00  0.278243D+00
     40 -0.140869D-01 -0.643194D-02  0.000000D+00  0.000000D+00 -0.720665D-02
     41 -0.140869D-01 -0.643194D-02  0.000000D+00  0.000000D+00 -0.720665D-02
     42 -0.982525D-02 -0.105611D-01  0.000000D+00  0.000000D+00  0.468757D-01
     43  0.000000D+00  0.000000D+00  0.000000D+00  0.000000D+00  0.000000D+00
     44  0.000000D+00  0.000000D+00  0.416014D-01  0.000000D+00  0.000000D+00
     45  0.000000D+00  0.000000D+00  0.000000D+00  0.416014D-01  0.000000D+00
               36            37            38            39            40 
     36  0.687043D+00
     37  0.000000D+00  0.288072D+00
     38  0.000000D+00  0.000000D+00  0.288072D+00
     39 -0.186860D+00  0.000000D+00  0.000000D+00  0.133531D+00
     40 -0.384300D-02  0.000000D+00  0.000000D+00 -0.298141D-02  0.350737D-03
     41 -0.384300D-02  0.000000D+00  0.000000D+00 -0.298141D-02  0.350737D-03
     42 -0.275463D-01  0.000000D+00  0.000000D+00  0.223218D-01 -0.458552D-03
     43  0.000000D+00  0.000000D+00  0.000000D+00  0.000000D+00  0.000000D+00
     44  0.000000D+00  0.258082D-01  0.000000D+00  0.000000D+00  0.000000D+00
     45  0.000000D+00  0.000000D+00  0.258082D-01  0.000000D+00  0.000000D+00
               41            42            43            44            45 
     41  0.350737D-03
     42 -0.458552D-03  0.401589D-02
     43  0.000000D+00  0.000000D+00  0.000000D+00
     44  0.000000D+00  0.000000D+00  0.000000D+00  0.269054D-02
     45  0.000000D+00  0.000000D+00  0.000000D+00  0.000000D+00  0.269054D-02
 PT:          0:
                1             2             3             4             5 
      1  0.205790D+01
      2 -0.810728D-01  0.382591D+00
      3  0.000000D+00  0.000000D+00  0.324338D+00
      4  0.000000D+00  0.000000D+00  0.000000D+00  0.324338D+00
      5  0.000000D+00  0.000000D+00  0.000000D+00  0.000000D+00  0.476645D+00
      6 -0.621303D-01  0.136324D+00  0.000000D+00  0.000000D+00  0.000000D+00
      7  0.000000D+00  0.000000D+00  0.125801D+00  0.000000D+00  0.000000D+00
      8  0.000000D+00  0.000000D+00  0.000000D+00  0.125801D+00  0.000000D+00
      9  0.000000D+00  0.000000D+00  0.000000D+00  0.000000D+00 -0.117833D-01
     10 -0.814287D-02 -0.266877D-01  0.000000D+00  0.000000D+00  0.000000D+00
     11 -0.814287D-02 -0.266877D-01  0.000000D+00  0.000000D+00  0.000000D+00
     12 -0.155884D-01  0.262777D-02  0.000000D+00  0.000000D+00  0.000000D+00
     13  0.000000D+00  0.000000D+00  0.000000D+00  0.000000D+00  0.000000D+00
     14  0.000000D+00  0.000000D+00  0.000000D+00  0.000000D+00  0.000000D+00
     15  0.000000D+00  0.000000D+00  0.000000D+00  0.000000D+00  0.000000D+00
     16  0.164257D-01 -0.227996D-01  0.000000D+00  0.000000D+00 -0.502447D-01
     17 -0.349611D-01  0.445910D-01  0.000000D+00  0.000000D+00  0.111563D+00
     18  0.000000D+00  0.000000D+00  0.283189D+00  0.000000D+00  0.000000D+00
     19  0.000000D+00  0.000000D+00  0.000000D+00  0.283189D+00  0.000000D+00
     20  0.130951D+00 -0.284191D+00  0.000000D+00  0.000000D+00 -0.365104D+00
     21  0.131308D-02 -0.524707D-01  0.000000D+00  0.000000D+00 -0.261483D-01
     22  0.000000D+00  0.000000D+00  0.154232D+00  0.000000D+00  0.000000D+00
     23  0.000000D+00  0.000000D+00  0.000000D+00  0.154232D+00  0.000000D+00
     24  0.703327D-01 -0.141399D+00  0.000000D+00  0.000000D+00 -0.140365D+00
     25  0.395358D-02 -0.651491D-02  0.000000D+00  0.000000D+00 -0.525323D-02
     26  0.395358D-02 -0.651491D-02  0.000000D+00  0.000000D+00 -0.525323D-02
     27 -0.148370D-01  0.284554D-01  0.000000D+00  0.000000D+00  0.220706D-01
     28  0.000000D+00  0.000000D+00  0.000000D+00  0.000000D+00  0.000000D+00
     29  0.000000D+00  0.000000D+00 -0.233822D-01  0.000000D+00  0.000000D+00
     30  0.000000D+00  0.000000D+00  0.000000D+00 -0.233822D-01  0.000000D+00
     31  0.164257D-01 -0.227996D-01  0.000000D+00  0.000000D+00  0.502447D-01
     32 -0.349611D-01  0.445910D-01  0.000000D+00  0.000000D+00 -0.111563D+00
     33  0.000000D+00  0.000000D+00  0.283189D+00  0.000000D+00  0.000000D+00
     34  0.000000D+00  0.000000D+00  0.000000D+00  0.283189D+00  0.000000D+00
     35 -0.130951D+00  0.284191D+00  0.000000D+00  0.000000D+00 -0.365104D+00
     36  0.131308D-02 -0.524707D-01  0.000000D+00  0.000000D+00  0.261483D-01
     37  0.000000D+00  0.000000D+00  0.154232D+00  0.000000D+00  0.000000D+00
     38  0.000000D+00  0.000000D+00  0.000000D+00  0.154232D+00  0.000000D+00
     39 -0.703327D-01  0.141399D+00  0.000000D+00  0.000000D+00 -0.140365D+00
     40  0.395358D-02 -0.651491D-02  0.000000D+00  0.000000D+00  0.525323D-02
     41  0.395358D-02 -0.651491D-02  0.000000D+00  0.000000D+00  0.525323D-02
     42 -0.148370D-01  0.284554D-01  0.000000D+00  0.000000D+00 -0.220706D-01
     43  0.000000D+00  0.000000D+00  0.000000D+00  0.000000D+00  0.000000D+00
     44  0.000000D+00  0.000000D+00  0.233822D-01  0.000000D+00  0.000000D+00
     45  0.000000D+00  0.000000D+00  0.000000D+00  0.233822D-01  0.000000D+00
                6             7             8             9            10 
      6  0.698665D-01
      7  0.000000D+00  0.487941D-01
      8  0.000000D+00  0.000000D+00  0.487941D-01
      9  0.000000D+00  0.000000D+00  0.000000D+00  0.649007D-03
     10 -0.658797D-02  0.000000D+00  0.000000D+00  0.000000D+00  0.230625D-02
     11 -0.658797D-02  0.000000D+00  0.000000D+00  0.000000D+00  0.230625D-02
     12 -0.656065D-02  0.000000D+00  0.000000D+00  0.000000D+00 -0.109521D-02
     13  0.000000D+00  0.000000D+00  0.000000D+00  0.000000D+00  0.000000D+00
     14  0.000000D+00  0.000000D+00  0.000000D+00  0.000000D+00  0.000000D+00
     15  0.000000D+00  0.000000D+00  0.000000D+00  0.000000D+00  0.000000D+00
     16  0.169339D-01  0.000000D+00  0.000000D+00 -0.568924D-02  0.576906D-02
     17 -0.561397D-01  0.000000D+00  0.000000D+00 -0.106413D-01 -0.123531D-01
     18  0.000000D+00  0.109840D+00  0.000000D+00  0.000000D+00  0.000000D+00
     19  0.000000D+00  0.000000D+00  0.109840D+00  0.000000D+00  0.000000D+00
     20 -0.131310D+00  0.000000D+00  0.000000D+00  0.501573D-02  0.155775D-01
     21 -0.105735D+00  0.000000D+00  0.000000D+00 -0.835500D-02 -0.762369D-02
     22  0.000000D+00  0.598217D-01  0.000000D+00  0.000000D+00  0.000000D+00
     23  0.000000D+00  0.000000D+00  0.598217D-01  0.000000D+00  0.000000D+00
     24 -0.680366D-01  0.000000D+00  0.000000D+00  0.100067D-02  0.737267D-02
     25 -0.157576D-02  0.000000D+00  0.000000D+00  0.269083D-03  0.531691D-03
     26 -0.157576D-02  0.000000D+00  0.000000D+00  0.269083D-03  0.531691D-03
     27  0.133906D-01  0.000000D+00  0.000000D+00 -0.194419D-03 -0.152624D-02
     28  0.000000D+00  0.000000D+00  0.000000D+00  0.000000D+00  0.000000D+00
     29  0.000000D+00 -0.906920D-02  0.000000D+00  0.000000D+00  0.000000D+00
     30  0.000000D+00  0.000000D+00 -0.906920D-02  0.000000D+00  0.000000D+00
     31  0.169339D-01  0.000000D+00  0.000000D+00  0.568924D-02  0.576906D-02
     32 -0.561397D-01  0.000000D+00  0.000000D+00  0.106413D-01 -0.123531D-01
     33  0.000000D+00  0.109840D+00  0.000000D+00  0.000000D+00  0.000000D+00
     34  0.000000D+00  0.000000D+00  0.109840D+00  0.000000D+00  0.000000D+00
     35  0.131310D+00  0.000000D+00  0.000000D+00  0.501573D-02 -0.155775D-01
     36 -0.105735D+00  0.000000D+00  0.000000D+00  0.835500D-02 -0.762369D-02
     37  0.000000D+00  0.598217D-01  0.000000D+00  0.000000D+00  0.000000D+00
     38  0.000000D+00  0.000000D+00  0.598217D-01  0.000000D+00  0.000000D+00
     39  0.680366D-01  0.000000D+00  0.000000D+00  0.100067D-02 -0.737267D-02
     40 -0.157576D-02  0.000000D+00  0.000000D+00 -0.269083D-03  0.531691D-03
     41 -0.157576D-02  0.000000D+00  0.000000D+00 -0.269083D-03  0.531691D-03
     42  0.133906D-01  0.000000D+00  0.000000D+00  0.194419D-03 -0.152624D-02
     43  0.000000D+00  0.000000D+00  0.000000D+00  0.000000D+00  0.000000D+00
     44  0.000000D+00  0.906920D-02  0.000000D+00  0.000000D+00  0.000000D+00
     45  0.000000D+00  0.000000D+00  0.906920D-02  0.000000D+00  0.000000D+00
               11            12            13            14            15 
     11  0.230625D-02
     12 -0.109521D-02  0.307662D-02
     13  0.000000D+00  0.000000D+00  0.000000D+00
     14  0.000000D+00  0.000000D+00  0.000000D+00  0.680706D-02
     15  0.000000D+00  0.000000D+00  0.000000D+00  0.000000D+00  0.680706D-02
     16  0.576906D-02 -0.174013D-01  0.000000D+00  0.000000D+00  0.000000D+00
     17 -0.123531D-01  0.275314D-01  0.000000D+00  0.000000D+00  0.000000D+00
     18  0.000000D+00  0.000000D+00  0.000000D+00  0.551401D-01  0.000000D+00
     19  0.000000D+00  0.000000D+00  0.000000D+00  0.000000D+00  0.551401D-01
     20  0.155775D-01  0.841092D-02  0.000000D+00  0.000000D+00  0.000000D+00
     21 -0.762369D-02  0.323929D-01  0.000000D+00  0.000000D+00  0.000000D+00
     22  0.000000D+00  0.000000D+00  0.000000D+00  0.382319D-01  0.000000D+00
     23  0.000000D+00  0.000000D+00  0.000000D+00  0.000000D+00  0.382319D-01
     24  0.737267D-02  0.514424D-02  0.000000D+00  0.000000D+00  0.000000D+00
     25  0.531691D-03 -0.296495D-03  0.000000D+00  0.000000D+00  0.000000D+00
     26  0.531691D-03 -0.296495D-03  0.000000D+00  0.000000D+00  0.000000D+00
     27 -0.152624D-02 -0.861514D-03  0.000000D+00  0.000000D+00  0.000000D+00
     28  0.000000D+00  0.000000D+00  0.000000D+00  0.000000D+00  0.000000D+00
     29  0.000000D+00  0.000000D+00  0.000000D+00 -0.261539D-02  0.000000D+00
     30  0.000000D+00  0.000000D+00  0.000000D+00  0.000000D+00 -0.261539D-02
     31  0.576906D-02 -0.174013D-01  0.000000D+00  0.000000D+00  0.000000D+00
     32 -0.123531D-01  0.275314D-01  0.000000D+00  0.000000D+00  0.000000D+00
     33  0.000000D+00  0.000000D+00  0.000000D+00 -0.551401D-01  0.000000D+00
     34  0.000000D+00  0.000000D+00  0.000000D+00  0.000000D+00 -0.551401D-01
     35 -0.155775D-01 -0.841092D-02  0.000000D+00  0.000000D+00  0.000000D+00
     36 -0.762369D-02  0.323929D-01  0.000000D+00  0.000000D+00  0.000000D+00
     37  0.000000D+00  0.000000D+00  0.000000D+00 -0.382319D-01  0.000000D+00
     38  0.000000D+00  0.000000D+00  0.000000D+00  0.000000D+00 -0.382319D-01
     39 -0.737267D-02 -0.514424D-02  0.000000D+00  0.000000D+00  0.000000D+00
     40  0.531691D-03 -0.296495D-03  0.000000D+00  0.000000D+00  0.000000D+00
     41  0.531691D-03 -0.296495D-03  0.000000D+00  0.000000D+00  0.000000D+00
     42 -0.152624D-02 -0.861514D-03  0.000000D+00  0.000000D+00  0.000000D+00
     43  0.000000D+00  0.000000D+00  0.000000D+00  0.000000D+00  0.000000D+00
     44  0.000000D+00  0.000000D+00  0.000000D+00 -0.261539D-02  0.000000D+00
     45  0.000000D+00  0.000000D+00  0.000000D+00  0.000000D+00 -0.261539D-02
               16            17            18            19            20 
     16  0.207842D+01
     17 -0.185518D+00  0.519396D+00
     18  0.000000D+00  0.000000D+00  0.693919D+00
     19  0.000000D+00  0.000000D+00  0.000000D+00  0.693919D+00
     20 -0.502183D-01  0.105057D+00  0.000000D+00  0.000000D+00  0.598914D+00
     21 -0.221623D+00  0.562811D+00  0.000000D+00  0.000000D+00  0.322839D+00
     22  0.000000D+00  0.000000D+00  0.444359D+00  0.000000D+00  0.000000D+00
     23  0.000000D+00  0.000000D+00  0.000000D+00  0.444359D+00  0.000000D+00
     24 -0.439609D-01  0.861581D-01  0.000000D+00  0.000000D+00  0.278243D+00
     25 -0.140869D-01 -0.643194D-02  0.000000D+00  0.000000D+00  0.720665D-02
     26 -0.140869D-01 -0.643194D-02  0.000000D+00  0.000000D+00  0.720665D-02
     27 -0.982525D-02 -0.105611D-01  0.000000D+00  0.000000D+00 -0.468757D-01
     28  0.000000D+00  0.000000D+00  0.000000D+00  0.000000D+00  0.000000D+00
     29  0.000000D+00  0.000000D+00 -0.416014D-01  0.000000D+00  0.000000D+00
     30  0.000000D+00  0.000000D+00  0.000000D+00 -0.416014D-01  0.000000D+00
     31  0.153030D-02  0.125248D-02  0.000000D+00  0.000000D+00 -0.122648D-01
     32  0.125248D-02 -0.253298D-02  0.000000D+00  0.000000D+00  0.287223D-01
     33  0.000000D+00  0.000000D+00 -0.199397D+00  0.000000D+00  0.000000D+00
     34  0.000000D+00  0.000000D+00  0.000000D+00 -0.199397D+00  0.000000D+00
     35  0.122648D-01 -0.287223D-01  0.000000D+00  0.000000D+00  0.909797D-01
     36 -0.229858D-01  0.341002D-01  0.000000D+00  0.000000D+00 -0.220056D-02
     37  0.000000D+00  0.000000D+00 -0.175030D+00  0.000000D+00  0.000000D+00
     38  0.000000D+00  0.000000D+00  0.000000D+00 -0.175030D+00  0.000000D+00
     39 -0.124375D-02  0.143288D-02  0.000000D+00  0.000000D+00  0.177965D-01
     40  0.917253D-03 -0.631039D-03  0.000000D+00  0.000000D+00  0.668668D-03
     41  0.917253D-03 -0.631039D-03  0.000000D+00  0.000000D+00  0.668668D-03
     42  0.407313D-02 -0.427494D-02  0.000000D+00  0.000000D+00 -0.453345D-02
     43  0.000000D+00  0.000000D+00  0.000000D+00  0.000000D+00  0.000000D+00
     44  0.000000D+00  0.000000D+00 -0.770091D-03  0.000000D+00  0.000000D+00
     45  0.000000D+00  0.000000D+00  0.000000D+00 -0.770091D-03  0.000000D+00
               21            22            23            24            25 
     21  0.687043D+00
     22  0.000000D+00  0.288072D+00
     23  0.000000D+00  0.000000D+00  0.288072D+00
     24  0.186860D+00  0.000000D+00  0.000000D+00  0.133531D+00
     25 -0.384300D-02  0.000000D+00  0.000000D+00  0.298141D-02  0.350737D-03
     26 -0.384300D-02  0.000000D+00  0.000000D+00  0.298141D-02  0.350737D-03
     27 -0.275463D-01  0.000000D+00  0.000000D+00 -0.223218D-01 -0.458552D-03
     28  0.000000D+00  0.000000D+00  0.000000D+00  0.000000D+00  0.000000D+00
     29  0.000000D+00 -0.258082D-01  0.000000D+00  0.000000D+00  0.000000D+00
     30  0.000000D+00  0.000000D+00 -0.258082D-01  0.000000D+00  0.000000D+00
     31 -0.229858D-01  0.000000D+00  0.000000D+00  0.124375D-02  0.917253D-03
     32  0.341002D-01  0.000000D+00  0.000000D+00 -0.143288D-02 -0.631039D-03
     33  0.000000D+00 -0.175030D+00  0.000000D+00  0.000000D+00  0.000000D+00
     34  0.000000D+00  0.000000D+00 -0.175030D+00  0.000000D+00  0.000000D+00
     35  0.220056D-02  0.000000D+00  0.000000D+00  0.177965D-01 -0.668668D-03
     36  0.610393D-01  0.000000D+00  0.000000D+00 -0.526369D-02 -0.709416D-03
     37  0.000000D+00 -0.141388D+00  0.000000D+00  0.000000D+00  0.000000D+00
     38  0.000000D+00  0.000000D+00 -0.141388D+00  0.000000D+00  0.000000D+00
     39  0.526369D-02  0.000000D+00  0.000000D+00 -0.598161D-03 -0.793119D-03
     40 -0.709416D-03  0.000000D+00  0.000000D+00  0.793119D-03  0.626959D-04
     41 -0.709416D-03  0.000000D+00  0.000000D+00  0.793119D-03  0.626959D-04
     42 -0.610688D-02  0.000000D+00  0.000000D+00 -0.406013D-02 -0.219401D-03
     43  0.000000D+00  0.000000D+00  0.000000D+00  0.000000D+00  0.000000D+00
     44  0.000000D+00 -0.357047D-02  0.000000D+00  0.000000D+00  0.000000D+00
     45  0.000000D+00  0.000000D+00 -0.357047D-02  0.000000D+00  0.000000D+00
               26            27            28            29            30 
     26  0.350737D-03
     27 -0.458552D-03  0.401589D-02
     28  0.000000D+00  0.000000D+00  0.000000D+00
     29  0.000000D+00  0.000000D+00  0.000000D+00  0.269054D-02
     30  0.000000D+00  0.000000D+00  0.000000D+00  0.000000D+00  0.269054D-02
     31  0.917253D-03  0.407313D-02  0.000000D+00  0.000000D+00  0.000000D+00
     32 -0.631039D-03 -0.427494D-02  0.000000D+00  0.000000D+00  0.000000D+00
     33  0.000000D+00  0.000000D+00  0.000000D+00  0.770091D-03  0.000000D+00
     34  0.000000D+00  0.000000D+00  0.000000D+00  0.000000D+00  0.770091D-03
     35 -0.668668D-03  0.453345D-02  0.000000D+00  0.000000D+00  0.000000D+00
     36 -0.709416D-03 -0.610688D-02  0.000000D+00  0.000000D+00  0.000000D+00
     37  0.000000D+00  0.000000D+00  0.000000D+00  0.357047D-02  0.000000D+00
     38  0.000000D+00  0.000000D+00  0.000000D+00  0.000000D+00  0.357047D-02
     39 -0.793119D-03  0.406013D-02  0.000000D+00  0.000000D+00  0.000000D+00
     40  0.626959D-04 -0.219401D-03  0.000000D+00  0.000000D+00  0.000000D+00
     41  0.626959D-04 -0.219401D-03  0.000000D+00  0.000000D+00  0.000000D+00
     42 -0.219401D-03  0.127176D-02  0.000000D+00  0.000000D+00  0.000000D+00
     43  0.000000D+00  0.000000D+00  0.000000D+00  0.000000D+00  0.000000D+00
     44  0.000000D+00  0.000000D+00  0.000000D+00 -0.680788D-03  0.000000D+00
     45  0.000000D+00  0.000000D+00  0.000000D+00  0.000000D+00 -0.680788D-03
               31            32            33            34            35 
     31  0.207842D+01
     32 -0.185518D+00  0.519396D+00
     33  0.000000D+00  0.000000D+00  0.693919D+00
     34  0.000000D+00  0.000000D+00  0.000000D+00  0.693919D+00
     35  0.502183D-01 -0.105057D+00  0.000000D+00  0.000000D+00  0.598914D+00
     36 -0.221623D+00  0.562811D+00  0.000000D+00  0.000000D+00 -0.322839D+00
     37  0.000000D+00  0.000000D+00  0.444359D+00  0.000000D+00  0.000000D+00
     38  0.000000D+00  0.000000D+00  0.000000D+00  0.444359D+00  0.000000D+00
     39  0.439609D-01 -0.861581D-01  0.000000D+00  0.000000D+00  0.278243D+00
     40 -0.140869D-01 -0.643194D-02  0.000000D+00  0.000000D+00 -0.720665D-02
     41 -0.140869D-01 -0.643194D-02  0.000000D+00  0.000000D+00 -0.720665D-02
     42 -0.982525D-02 -0.105611D-01  0.000000D+00  0.000000D+00  0.468757D-01
     43  0.000000D+00  0.000000D+00  0.000000D+00  0.000000D+00  0.000000D+00
     44  0.000000D+00  0.000000D+00  0.416014D-01  0.000000D+00  0.000000D+00
     45  0.000000D+00  0.000000D+00  0.000000D+00  0.416014D-01  0.000000D+00
               36            37            38            39            40 
     36  0.687043D+00
     37  0.000000D+00  0.288072D+00
     38  0.000000D+00  0.000000D+00  0.288072D+00
     39 -0.186860D+00  0.000000D+00  0.000000D+00  0.133531D+00
     40 -0.384300D-02  0.000000D+00  0.000000D+00 -0.298141D-02  0.350737D-03
     41 -0.384300D-02  0.000000D+00  0.000000D+00 -0.298141D-02  0.350737D-03
     42 -0.275463D-01  0.000000D+00  0.000000D+00  0.223218D-01 -0.458552D-03
     43  0.000000D+00  0.000000D+00  0.000000D+00  0.000000D+00  0.000000D+00
     44  0.000000D+00  0.258082D-01  0.000000D+00  0.000000D+00  0.000000D+00
     45  0.000000D+00  0.000000D+00  0.258082D-01  0.000000D+00  0.000000D+00
               41            42            43            44            45 
     41  0.350737D-03
     42 -0.458552D-03  0.401589D-02
     43  0.000000D+00  0.000000D+00  0.000000D+00
     44  0.000000D+00  0.000000D+00  0.000000D+00  0.269054D-02
     45  0.000000D+00  0.000000D+00  0.000000D+00  0.000000D+00  0.269054D-02
 WT:          0:
                1             2             3             4             5 
      1  0.205445D+02
      2  0.868743D+00  0.374622D+00
      3  0.000000D+00  0.000000D+00  0.167337D+00
      4  0.000000D+00  0.000000D+00  0.000000D+00  0.167337D+00
      5  0.000000D+00  0.000000D+00  0.000000D+00  0.000000D+00  0.387453D+00
      6 -0.522627D-01  0.894676D-01  0.000000D+00  0.000000D+00  0.000000D+00
      7  0.000000D+00  0.000000D+00  0.649048D-01  0.000000D+00  0.000000D+00
      8  0.000000D+00  0.000000D+00  0.000000D+00  0.649048D-01  0.000000D+00
      9  0.000000D+00  0.000000D+00  0.000000D+00  0.000000D+00 -0.128211D-01
     10 -0.203902D+00 -0.362648D-01  0.000000D+00  0.000000D+00  0.000000D+00
     11 -0.203902D+00 -0.362648D-01  0.000000D+00  0.000000D+00  0.000000D+00
     12 -0.137618D+00  0.632458D-02  0.000000D+00  0.000000D+00  0.000000D+00
     13  0.000000D+00  0.000000D+00  0.000000D+00  0.000000D+00  0.000000D+00
     14  0.000000D+00  0.000000D+00  0.000000D+00  0.000000D+00  0.000000D+00
     15  0.000000D+00  0.000000D+00  0.000000D+00  0.000000D+00  0.000000D+00
     16  0.251413D-01 -0.615203D-01  0.000000D+00  0.000000D+00 -0.923039D-01
     17 -0.735665D-01  0.131570D+00  0.000000D+00  0.000000D+00  0.191954D+00
     18  0.000000D+00  0.000000D+00  0.146107D+00  0.000000D+00  0.000000D+00
     19  0.000000D+00  0.000000D+00  0.000000D+00  0.146107D+00  0.000000D+00
     20  0.106909D+00 -0.205492D+00  0.000000D+00  0.000000D+00 -0.243243D+00
     21 -0.117049D+00  0.643195D-01  0.000000D+00  0.000000D+00  0.955039D-01
     22  0.000000D+00  0.000000D+00  0.795736D-01  0.000000D+00  0.000000D+00
     23  0.000000D+00  0.000000D+00  0.000000D+00  0.795736D-01  0.000000D+00
     24  0.108867D+00 -0.962047D-01  0.000000D+00  0.000000D+00 -0.808740D-01
     25  0.105164D-01 -0.619069D-02  0.000000D+00  0.000000D+00 -0.485090D-02
     26  0.105164D-01 -0.619069D-02  0.000000D+00  0.000000D+00 -0.485090D-02
     27 -0.284067D-01  0.195393D-01  0.000000D+00  0.000000D+00  0.144795D-01
     28  0.000000D+00  0.000000D+00  0.000000D+00  0.000000D+00  0.000000D+00
     29  0.000000D+00  0.000000D+00 -0.120637D-01  0.000000D+00  0.000000D+00
     30  0.000000D+00  0.000000D+00  0.000000D+00 -0.120637D-01  0.000000D+00
     31  0.251413D-01 -0.615203D-01  0.000000D+00  0.000000D+00  0.923039D-01
     32 -0.735665D-01  0.131570D+00  0.000000D+00  0.000000D+00 -0.191954D+00
     33  0.000000D+00  0.000000D+00  0.146107D+00  0.000000D+00  0.000000D+00
     34  0.000000D+00  0.000000D+00  0.000000D+00  0.146107D+00  0.000000D+00
     35 -0.106909D+00  0.205492D+00  0.000000D+00  0.000000D+00 -0.243243D+00
     36 -0.117049D+00  0.643195D-01  0.000000D+00  0.000000D+00 -0.955039D-01
     37  0.000000D+00  0.000000D+00  0.795736D-01  0.000000D+00  0.000000D+00
     38  0.000000D+00  0.000000D+00  0.000000D+00  0.795736D-01  0.000000D+00
     39 -0.108867D+00  0.962047D-01  0.000000D+00  0.000000D+00 -0.808740D-01
     40  0.105164D-01 -0.619069D-02  0.000000D+00  0.000000D+00  0.485090D-02
     41  0.105164D-01 -0.619069D-02  0.000000D+00  0.000000D+00  0.485090D-02
     42 -0.284067D-01  0.195393D-01  0.000000D+00  0.000000D+00 -0.144795D-01
     43  0.000000D+00  0.000000D+00  0.000000D+00  0.000000D+00  0.000000D+00
     44  0.000000D+00  0.000000D+00  0.120637D-01  0.000000D+00  0.000000D+00
     45  0.000000D+00  0.000000D+00  0.000000D+00  0.120637D-01  0.000000D+00
                6             7             8             9            10 
      6  0.419794D-01
      7  0.000000D+00  0.251745D-01
      8  0.000000D+00  0.000000D+00  0.251745D-01
      9  0.000000D+00  0.000000D+00  0.000000D+00  0.270949D-02
     10 -0.491709D-02  0.000000D+00  0.000000D+00  0.000000D+00  0.455324D-02
     11 -0.491709D-02  0.000000D+00  0.000000D+00  0.000000D+00  0.455324D-02
     12 -0.156836D-02  0.000000D+00  0.000000D+00  0.000000D+00 -0.396282D-03
     13  0.000000D+00  0.000000D+00  0.000000D+00  0.000000D+00  0.000000D+00
     14  0.000000D+00  0.000000D+00  0.000000D+00  0.000000D+00  0.000000D+00
     15  0.000000D+00  0.000000D+00  0.000000D+00  0.000000D+00  0.000000D+00
     16 -0.142055D+00  0.000000D+00  0.000000D+00 -0.194312D+00  0.717808D-02
     17 -0.223503D-01  0.000000D+00  0.000000D+00 -0.167963D-01 -0.174950D-01
     18  0.000000D+00  0.566703D-01  0.000000D+00  0.000000D+00  0.000000D+00
     19  0.000000D+00  0.000000D+00  0.566703D-01  0.000000D+00  0.000000D+00
     20 -0.789481D-01  0.000000D+00  0.000000D+00  0.545138D-02  0.132482D-01
     21 -0.494406D-01  0.000000D+00  0.000000D+00 -0.135748D-01 -0.131764D-01
     22  0.000000D+00  0.308641D-01  0.000000D+00  0.000000D+00  0.000000D+00
     23  0.000000D+00  0.000000D+00  0.308641D-01  0.000000D+00  0.000000D+00
     24 -0.401808D-01  0.000000D+00  0.000000D+00  0.141958D-02  0.547768D-02
     25 -0.345982D-04  0.000000D+00  0.000000D+00  0.196249D-02  0.518426D-03
     26 -0.345982D-04  0.000000D+00  0.000000D+00  0.196249D-02  0.518426D-03
     27  0.895158D-02  0.000000D+00  0.000000D+00  0.139278D-02 -0.110466D-02
     28  0.000000D+00  0.000000D+00  0.000000D+00  0.000000D+00  0.000000D+00
     29  0.000000D+00 -0.467911D-02  0.000000D+00  0.000000D+00  0.000000D+00
     30  0.000000D+00  0.000000D+00 -0.467911D-02  0.000000D+00  0.000000D+00
     31 -0.142055D+00  0.000000D+00  0.000000D+00  0.194312D+00  0.717808D-02
     32 -0.223503D-01  0.000000D+00  0.000000D+00  0.167963D-01 -0.174950D-01
     33  0.000000D+00  0.566703D-01  0.000000D+00  0.000000D+00  0.000000D+00
     34  0.000000D+00  0.000000D+00  0.566703D-01  0.000000D+00  0.000000D+00
     35  0.789481D-01  0.000000D+00  0.000000D+00  0.545138D-02 -0.132482D-01
     36 -0.494406D-01  0.000000D+00  0.000000D+00  0.135748D-01 -0.131764D-01
     37  0.000000D+00  0.308641D-01  0.000000D+00  0.000000D+00  0.000000D+00
     38  0.000000D+00  0.000000D+00  0.308641D-01  0.000000D+00  0.000000D+00
     39  0.401808D-01  0.000000D+00  0.000000D+00  0.141958D-02 -0.547768D-02
     40 -0.345982D-04  0.000000D+00  0.000000D+00 -0.196249D-02  0.518426D-03
     41 -0.345982D-04  0.000000D+00  0.000000D+00 -0.196249D-02  0.518426D-03
     42  0.895158D-02  0.000000D+00  0.000000D+00 -0.139278D-02 -0.110466D-02
     43  0.000000D+00  0.000000D+00  0.000000D+00  0.000000D+00  0.000000D+00
     44  0.000000D+00  0.467911D-02  0.000000D+00  0.000000D+00  0.000000D+00
     45  0.000000D+00  0.000000D+00  0.467911D-02  0.000000D+00  0.000000D+00
               11            12            13            14            15 
     11  0.455324D-02
     12 -0.396282D-03  0.402609D-02
     13  0.000000D+00  0.000000D+00  0.000000D+00
     14  0.000000D+00  0.000000D+00  0.000000D+00  0.252039D-02
     15  0.000000D+00  0.000000D+00  0.000000D+00  0.000000D+00  0.252039D-02
     16  0.717808D-02 -0.102866D+00  0.000000D+00  0.000000D+00  0.000000D+00
     17 -0.174950D-01  0.236454D-01  0.000000D+00  0.000000D+00  0.000000D+00
     18  0.000000D+00  0.000000D+00  0.000000D+00  0.204162D-01  0.000000D+00
     19  0.000000D+00  0.000000D+00  0.000000D+00  0.000000D+00  0.204162D-01
     20  0.132482D-01  0.248958D-03  0.000000D+00  0.000000D+00  0.000000D+00
     21 -0.131764D-01  0.269821D-01  0.000000D+00  0.000000D+00  0.000000D+00
     22  0.000000D+00  0.000000D+00  0.000000D+00  0.141558D-01  0.000000D+00
     23  0.000000D+00  0.000000D+00  0.000000D+00  0.000000D+00  0.141558D-01
     24  0.547768D-02  0.789442D-03  0.000000D+00  0.000000D+00  0.000000D+00
     25  0.518426D-03  0.235146D-03  0.000000D+00  0.000000D+00  0.000000D+00
     26  0.518426D-03  0.235146D-03  0.000000D+00  0.000000D+00  0.000000D+00
     27 -0.110466D-02  0.613483D-03  0.000000D+00  0.000000D+00  0.000000D+00
     28  0.000000D+00  0.000000D+00  0.000000D+00  0.000000D+00  0.000000D+00
     29  0.000000D+00  0.000000D+00  0.000000D+00 -0.968377D-03  0.000000D+00
     30  0.000000D+00  0.000000D+00  0.000000D+00  0.000000D+00 -0.968377D-03
     31  0.717808D-02 -0.102866D+00  0.000000D+00  0.000000D+00  0.000000D+00
     32 -0.174950D-01  0.236454D-01  0.000000D+00  0.000000D+00  0.000000D+00
     33  0.000000D+00  0.000000D+00  0.000000D+00 -0.204162D-01  0.000000D+00
     34  0.000000D+00  0.000000D+00  0.000000D+00  0.000000D+00 -0.204162D-01
     35 -0.132482D-01 -0.248958D-03  0.000000D+00  0.000000D+00  0.000000D+00
     36 -0.131764D-01  0.269821D-01  0.000000D+00  0.000000D+00  0.000000D+00
     37  0.000000D+00  0.000000D+00  0.000000D+00 -0.141558D-01  0.000000D+00
     38  0.000000D+00  0.000000D+00  0.000000D+00  0.000000D+00 -0.141558D-01
     39 -0.547768D-02 -0.789442D-03  0.000000D+00  0.000000D+00  0.000000D+00
     40  0.518426D-03  0.235146D-03  0.000000D+00  0.000000D+00  0.000000D+00
     41  0.518426D-03  0.235146D-03  0.000000D+00  0.000000D+00  0.000000D+00
     42 -0.110466D-02  0.613483D-03  0.000000D+00  0.000000D+00  0.000000D+00
     43  0.000000D+00  0.000000D+00  0.000000D+00  0.000000D+00  0.000000D+00
     44  0.000000D+00  0.000000D+00  0.000000D+00 -0.968377D-03  0.000000D+00
     45  0.000000D+00  0.000000D+00  0.000000D+00  0.000000D+00 -0.968377D-03
               16            17            18            19            20 
     16  0.380134D+02
     17  0.740864D+00  0.533949D+00
     18  0.000000D+00  0.000000D+00  0.292951D+00
     19  0.000000D+00  0.000000D+00  0.000000D+00  0.292951D+00
     20 -0.504492D-01 -0.411016D-01  0.000000D+00  0.000000D+00  0.361417D+00
     21  0.427777D+00  0.517026D+00  0.000000D+00  0.000000D+00  0.898774D-01
     22  0.000000D+00  0.000000D+00  0.184146D+00  0.000000D+00  0.000000D+00
     23  0.000000D+00  0.000000D+00  0.000000D+00  0.184146D+00  0.000000D+00
     24 -0.111813D+00  0.168174D-01  0.000000D+00  0.000000D+00  0.161278D+00
     25 -0.320503D+00 -0.163871D-01  0.000000D+00  0.000000D+00  0.651657D-02
     26 -0.320503D+00 -0.163871D-01  0.000000D+00  0.000000D+00  0.651657D-02
     27 -0.276364D+00 -0.545326D-02  0.000000D+00  0.000000D+00 -0.279464D-01
     28  0.000000D+00  0.000000D+00  0.000000D+00  0.000000D+00  0.000000D+00
     29  0.000000D+00  0.000000D+00 -0.183774D-01  0.000000D+00  0.000000D+00
     30  0.000000D+00  0.000000D+00  0.000000D+00 -0.183774D-01  0.000000D+00
     31  0.106084D-01  0.367084D-01  0.000000D+00  0.000000D+00 -0.334712D-01
     32  0.367084D-01 -0.146849D-01  0.000000D+00  0.000000D+00  0.245191D-01
     33  0.000000D+00  0.000000D+00 -0.378098D-01  0.000000D+00  0.000000D+00
     34  0.000000D+00  0.000000D+00  0.000000D+00 -0.378098D-01  0.000000D+00
     35  0.334712D-01 -0.245191D-01  0.000000D+00  0.000000D+00  0.373642D-01
     36 -0.135974D+00  0.169819D-01  0.000000D+00  0.000000D+00  0.721213D-02
     37  0.000000D+00  0.000000D+00 -0.451900D-01  0.000000D+00  0.000000D+00
     38  0.000000D+00  0.000000D+00  0.000000D+00 -0.451900D-01  0.000000D+00
     39  0.611267D-03  0.101782D-01  0.000000D+00  0.000000D+00 -0.171825D-02
     40  0.114981D-01 -0.112095D-02  0.000000D+00  0.000000D+00  0.105552D-02
     41  0.114981D-01 -0.112095D-02  0.000000D+00  0.000000D+00  0.105552D-02
     42  0.444846D-01 -0.240865D-03  0.000000D+00  0.000000D+00 -0.409807D-02
     43  0.000000D+00  0.000000D+00  0.000000D+00  0.000000D+00  0.000000D+00
     44  0.000000D+00  0.000000D+00  0.268887D-02  0.000000D+00  0.000000D+00
     45  0.000000D+00  0.000000D+00  0.000000D+00  0.268887D-02  0.000000D+00
               21            22            23            24            25 
     21  0.552207D+00
     22  0.000000D+00  0.117346D+00
     23  0.000000D+00  0.000000D+00  0.117346D+00
     24  0.748091D-01  0.000000D+00  0.000000D+00  0.764526D-01
     25 -0.117930D-01  0.000000D+00  0.000000D+00  0.314501D-02  0.299917D-02
     26 -0.117930D-01  0.000000D+00  0.000000D+00  0.314501D-02  0.299917D-02
     27 -0.134377D-01  0.000000D+00  0.000000D+00 -0.124242D-01  0.188307D-02
     28  0.000000D+00  0.000000D+00  0.000000D+00  0.000000D+00  0.000000D+00
     29  0.000000D+00 -0.111755D-01  0.000000D+00  0.000000D+00  0.000000D+00
     30  0.000000D+00  0.000000D+00 -0.111755D-01  0.000000D+00  0.000000D+00
     31 -0.135974D+00  0.000000D+00  0.000000D+00 -0.611267D-03  0.114981D-01
     32  0.169819D-01  0.000000D+00  0.000000D+00 -0.101782D-01 -0.112095D-02
     33  0.000000D+00 -0.451900D-01  0.000000D+00  0.000000D+00  0.000000D+00
     34  0.000000D+00  0.000000D+00 -0.451900D-01  0.000000D+00  0.000000D+00
     35 -0.721213D-02  0.000000D+00  0.000000D+00 -0.171825D-02 -0.105552D-02
     36  0.442403D-01  0.000000D+00  0.000000D+00 -0.960442D-02 -0.692655D-04
     37  0.000000D+00 -0.416667D-01  0.000000D+00  0.000000D+00  0.000000D+00
     38  0.000000D+00  0.000000D+00 -0.416667D-01  0.000000D+00  0.000000D+00
     39  0.960442D-02  0.000000D+00  0.000000D+00 -0.652191D-02 -0.915113D-03
     40 -0.692655D-04  0.000000D+00  0.000000D+00  0.915113D-03 -0.101541D-03
     41 -0.692655D-04  0.000000D+00  0.000000D+00  0.915113D-03 -0.101541D-03
     42 -0.625300D-03  0.000000D+00  0.000000D+00 -0.343030D-02 -0.650503D-03
     43  0.000000D+00  0.000000D+00  0.000000D+00  0.000000D+00  0.000000D+00
     44  0.000000D+00  0.297711D-03  0.000000D+00  0.000000D+00  0.000000D+00
     45  0.000000D+00  0.000000D+00  0.297711D-03  0.000000D+00  0.000000D+00
               26            27            28            29            30 
     26  0.299917D-02
     27  0.188307D-02  0.445074D-02
     28  0.000000D+00  0.000000D+00  0.000000D+00
     29  0.000000D+00  0.000000D+00  0.000000D+00  0.124176D-02
     30  0.000000D+00  0.000000D+00  0.000000D+00  0.000000D+00  0.124176D-02
     31  0.114981D-01  0.444846D-01  0.000000D+00  0.000000D+00  0.000000D+00
     32 -0.112095D-02 -0.240865D-03  0.000000D+00  0.000000D+00  0.000000D+00
     33  0.000000D+00  0.000000D+00  0.000000D+00 -0.268887D-02  0.000000D+00
     34  0.000000D+00  0.000000D+00  0.000000D+00  0.000000D+00 -0.268887D-02
     35 -0.105552D-02  0.409807D-02  0.000000D+00  0.000000D+00  0.000000D+00
     36 -0.692655D-04 -0.625300D-03  0.000000D+00  0.000000D+00  0.000000D+00
     37  0.000000D+00  0.000000D+00  0.000000D+00 -0.297711D-03  0.000000D+00
     38  0.000000D+00  0.000000D+00  0.000000D+00  0.000000D+00 -0.297711D-03
     39 -0.915113D-03  0.343030D-02  0.000000D+00  0.000000D+00  0.000000D+00
     40 -0.101541D-03 -0.650503D-03  0.000000D+00  0.000000D+00  0.000000D+00
     41 -0.101541D-03 -0.650503D-03  0.000000D+00  0.000000D+00  0.000000D+00
     42 -0.650503D-03  0.279000D-03  0.000000D+00  0.000000D+00  0.000000D+00
     43  0.000000D+00  0.000000D+00  0.000000D+00  0.000000D+00  0.000000D+00
     44  0.000000D+00  0.000000D+00  0.000000D+00 -0.497625D-03  0.000000D+00
     45  0.000000D+00  0.000000D+00  0.000000D+00  0.000000D+00 -0.497625D-03
               31            32            33            34            35 
     31  0.380134D+02
     32  0.740864D+00  0.533949D+00
     33  0.000000D+00  0.000000D+00  0.292951D+00
     34  0.000000D+00  0.000000D+00  0.000000D+00  0.292951D+00
     35  0.504492D-01  0.411016D-01  0.000000D+00  0.000000D+00  0.361417D+00
     36  0.427777D+00  0.517026D+00  0.000000D+00  0.000000D+00 -0.898774D-01
     37  0.000000D+00  0.000000D+00  0.184146D+00  0.000000D+00  0.000000D+00
     38  0.000000D+00  0.000000D+00  0.000000D+00  0.184146D+00  0.000000D+00
     39  0.111813D+00 -0.168174D-01  0.000000D+00  0.000000D+00  0.161278D+00
     40 -0.320503D+00 -0.163871D-01  0.000000D+00  0.000000D+00 -0.651657D-02
     41 -0.320503D+00 -0.163871D-01  0.000000D+00  0.000000D+00 -0.651657D-02
     42 -0.276364D+00 -0.545326D-02  0.000000D+00  0.000000D+00  0.279464D-01
     43  0.000000D+00  0.000000D+00  0.000000D+00  0.000000D+00  0.000000D+00
     44  0.000000D+00  0.000000D+00  0.183774D-01  0.000000D+00  0.000000D+00
     45  0.000000D+00  0.000000D+00  0.000000D+00  0.183774D-01  0.000000D+00
               36            37            38            39            40 
     36  0.552207D+00
     37  0.000000D+00  0.117346D+00
     38  0.000000D+00  0.000000D+00  0.117346D+00
     39 -0.748091D-01  0.000000D+00  0.000000D+00  0.764526D-01
     40 -0.117930D-01  0.000000D+00  0.000000D+00 -0.314501D-02  0.299917D-02
     41 -0.117930D-01  0.000000D+00  0.000000D+00 -0.314501D-02  0.299917D-02
     42 -0.134377D-01  0.000000D+00  0.000000D+00  0.124242D-01  0.188307D-02
     43  0.000000D+00  0.000000D+00  0.000000D+00  0.000000D+00  0.000000D+00
     44  0.000000D+00  0.111755D-01  0.000000D+00  0.000000D+00  0.000000D+00
     45  0.000000D+00  0.000000D+00  0.111755D-01  0.000000D+00  0.000000D+00
               41            42            43            44            45 
     41  0.299917D-02
     42  0.188307D-02  0.445074D-02
     43  0.000000D+00  0.000000D+00  0.000000D+00
     44  0.000000D+00  0.000000D+00  0.000000D+00  0.124176D-02
     45  0.000000D+00  0.000000D+00  0.000000D+00  0.000000D+00  0.124176D-02
 DipInt: DoE/N= T T RetVal/Mat= T F Init=T NMatP=  1 IDeriv=0 Min/MaxMlt=  1  1
 Entering OneElI...
 OneElI was handed 13421770698 working-precision words.
 Multipole integrals L=1 to 1 MinM= 0 MaxM= 0.
 Requested accuracy = 0.1000D-12
 ShPair: Thresh= 1.00D-13 NBox=     0 BxSize= 0.00D+00 RnKept= 4.38D+00
         NSMCal=                   78 NSMKep=                  77
 PrsmSu:  NPrtUS=   1 ThrOK=F IAlg=1 NPAlg=1 LenDen=           0.
 Prism:   IPart=     0 DynPar=F LinDyn=F Incr=           1.
 PRISM was handed 13421757141 working-precision words and    77 shell-pairs
 IPart=  0 NShTot=          77 NBatch=          14 AvBLen=         5.5
 PrSmSu:  NxtVal=              2.
 VNN
 I=    0 X=   0.000000000000D+00 Y=   0.000000000000D+00 Z=   0.000000000000D+00
 I=    1 X=   0.000000000000D+00 Y=   0.000000000000D+00 Z=   0.000000000000D+00
 I=    2 X=   0.000000000000D+00 Y=   0.000000000000D+00 Z=  -1.331883558103D+01
 I=    3 X=   0.000000000000D+00 Y=   0.000000000000D+00 Z=   1.331883558103D+01
 Entering OneElI...
 OneElI was handed 13421770566 working-precision words.
 Calculate overlap and kinetic energy integrals
    NBasis =  45  MinDer = 1  MaxDer = 1
 Requested accuracy = 0.1000D-12
 ShPair: Thresh= 1.00D-13 NBox=     0 BxSize= 0.00D+00 RnKept= 4.38D+00
         NSMCal=                   78 NSMKep=                  78
 PrsmSu:  NPrtUS=  36 ThrOK=T IAlg=1 NPAlg=1 LenDen=           0.
 Prism:   IPart=     0 DynPar=F LinDyn=F Incr=           1.
 PRISM was handed   372821362 working-precision words and    78 shell-pairs
 PRISM was handed   372821362 working-precision words and    78 shell-pairs
 PRISM was handed   372821362 working-precision words and    78 shell-pairs
 PRISM was handed   372821362 working-precision words and    78 shell-pairs
 PRISM was handed   372821362 working-precision words and    78 shell-pairs
 PRISM was handed   372821362 working-precision words and    78 shell-pairs
 PRISM was handed   372821362 working-precision words and    78 shell-pairs
 PRISM was handed   372821362 working-precision words and    78 shell-pairs
 PRISM was handed   372821362 working-precision words and    78 shell-pairs
 PRISM was handed   372821362 working-precision words and    78 shell-pairs
 PRISM was handed   372821362 working-precision words and    78 shell-pairs
 IPart= 23 NShTot=           0 NBatch=           0 AvBLen=         0.0
 IPart= 17 NShTot=           0 NBatch=           0 AvBLen=         0.0
 IPart= 20 NShTot=           0 NBatch=           0 AvBLen=         0.0
 IPart= 19 NShTot=           0 NBatch=           0 AvBLen=         0.0
 PRISM was handed   372821362 working-precision words and    78 shell-pairs
 PRISM was handed   372821362 working-precision words and    78 shell-pairs
 PRISM was handed   372821362 working-precision words and    78 shell-pairs
 PRISM was handed   372821362 working-precision words and    78 shell-pairs
 PRISM was handed   372821362 working-precision words and    78 shell-pairs
 IPart= 11 NShTot=           0 NBatch=           0 AvBLen=         0.0
 PRISM was handed   372821362 working-precision words and    78 shell-pairs
 IPart= 29 NShTot=           0 NBatch=           0 AvBLen=         0.0
 PRISM was handed   372821362 working-precision words and    78 shell-pairs
 IPart=  7 NShTot=           5 NBatch=           5 AvBLen=         1.0
 IPart=  8 NShTot=           5 NBatch=           5 AvBLen=         1.0
 IPart= 35 NShTot=           0 NBatch=           0 AvBLen=         0.0
 PRISM was handed   372821362 working-precision words and    78 shell-pairs
 PRISM was handed   372821362 working-precision words and    78 shell-pairs
 IPart= 33 NShTot=           0 NBatch=           0 AvBLen=         0.0
 IPart= 28 NShTot=           0 NBatch=           0 AvBLen=         0.0
 IPart= 27 NShTot=           0 NBatch=           0 AvBLen=         0.0
 IPart= 31 NShTot=           0 NBatch=           0 AvBLen=         0.0
 PRISM was handed   372821362 working-precision words and    78 shell-pairs
 IPart= 10 NShTot=           0 NBatch=           0 AvBLen=         0.0
 PRISM was handed   372821362 working-precision words and    78 shell-pairs
 IPart= 14 NShTot=           0 NBatch=           0 AvBLen=         0.0
 IPart=  5 NShTot=           7 NBatch=           7 AvBLen=         1.0
 IPart= 32 NShTot=           0 NBatch=           0 AvBLen=         0.0
 PRISM was handed   372821362 working-precision words and    78 shell-pairs
 PRISM was handed   372821362 working-precision words and    78 shell-pairs
 PRISM was handed   372821362 working-precision words and    78 shell-pairs
 PRISM was handed   372821362 working-precision words and    78 shell-pairs
 PRISM was handed   372821362 working-precision words and    78 shell-pairs
 PRISM was handed   372821362 working-precision words and    78 shell-pairs
 IPart=  4 NShTot=           9 NBatch=           9 AvBLen=         1.0
 PRISM was handed   372821362 working-precision words and    78 shell-pairs
 IPart=  3 NShTot=           9 NBatch=           9 AvBLen=         1.0
 IPart= 18 NShTot=           0 NBatch=           0 AvBLen=         0.0
 PRISM was handed   372821362 working-precision words and    78 shell-pairs
 PRISM was handed   372821362 working-precision words and    78 shell-pairs
 PRISM was handed   372821362 working-precision words and    78 shell-pairs
 IPart=  2 NShTot=          10 NBatch=          10 AvBLen=         1.0
 PRISM was handed   372821362 working-precision words and    78 shell-pairs
 IPart= 30 NShTot=           0 NBatch=           0 AvBLen=         0.0
 PRISM was handed   372821362 working-precision words and    78 shell-pairs
 IPart= 13 NShTot=           0 NBatch=           0 AvBLen=         0.0
 IPart= 24 NShTot=           0 NBatch=           0 AvBLen=         0.0
 IPart= 26 NShTot=           0 NBatch=           0 AvBLen=         0.0
 IPart=  9 NShTot=           0 NBatch=           0 AvBLen=         0.0
 PRISM was handed   372821362 working-precision words and    78 shell-pairs
 PRISM was handed   372821362 working-precision words and    78 shell-pairs
 IPart=  1 NShTot=          13 NBatch=          13 AvBLen=         1.0
 IPart=  0 NShTot=          15 NBatch=          15 AvBLen=         1.0
 IPart= 21 NShTot=           0 NBatch=           0 AvBLen=         0.0
 IPart= 15 NShTot=           0 NBatch=           0 AvBLen=         0.0
 IPart= 16 NShTot=           0 NBatch=           0 AvBLen=         0.0
 IPart=  6 NShTot=           5 NBatch=           5 AvBLen=         1.0
 IPart= 34 NShTot=           0 NBatch=           0 AvBLen=         0.0
 IPart= 12 NShTot=           0 NBatch=           0 AvBLen=         0.0
 IPart= 25 NShTot=           0 NBatch=           0 AvBLen=         0.0
 IPart= 22 NShTot=           0 NBatch=           0 AvBLen=         0.0
 PrSmSu:  NxtVal=             37.
 VNN+D1ST
 I=    0 X=   0.000000000000D+00 Y=   0.000000000000D+00 Z=   0.000000000000D+00
 I=    1 X=   0.000000000000D+00 Y=   0.000000000000D+00 Z=   0.000000000000D+00
 I=    2 X=   0.000000000000D+00 Y=   0.000000000000D+00 Z=  -1.558287696134D+01
 I=    3 X=   0.000000000000D+00 Y=   0.000000000000D+00 Z=   1.558287696134D+01
 D1ST
 I=    0 X=   0.000000000000D+00 Y=   0.000000000000D+00 Z=   0.000000000000D+00
 I=    1 X=   0.000000000000D+00 Y=   0.000000000000D+00 Z=   0.000000000000D+00
 I=    2 X=   0.000000000000D+00 Y=   0.000000000000D+00 Z=  -2.264041380311D+00
 I=    3 X=   0.000000000000D+00 Y=   0.000000000000D+00 Z=   2.264041380311D+00
 Entering OneElI...
 OneElI was handed 13421770566 working-precision words.
 Calculate potential energy integrals
    NBasis =  45  MinDer = 1  MaxDer = 1
 Requested accuracy = 0.1000D-12
 ShPair: Thresh= 1.00D-13 NBox=     0 BxSize= 0.00D+00 RnKept= 4.38D+00
         NSMCal=                   78 NSMKep=                  77
 PrsmSu:  NPrtUS=  36 ThrOK=T IAlg=1 NPAlg=1 LenDen=           0.
 Prism:   IPart=     0 DynPar=F LinDyn=F Incr=           1.
 PRISM was handed   372821708 working-precision words and    77 shell-pairs
 PRISM was handed   372821708 working-precision words and    77 shell-pairs
 PRISM was handed   372821708 working-precision words and    77 shell-pairs
 PRISM was handed   372821708 working-precision words and    77 shell-pairs
 PRISM was handed   372821708 working-precision words and    77 shell-pairs
 PRISM was handed   372821708 working-precision words and    77 shell-pairs
 PRISM was handed   372821708 working-precision words and    77 shell-pairs
 PRISM was handed   372821708 working-precision words and    77 shell-pairs
 PRISM was handed   372821708 working-precision words and    77 shell-pairs
 PRISM was handed   372821708 working-precision words and    77 shell-pairs
 PRISM was handed   372821708 working-precision words and    77 shell-pairs
 PRISM was handed   372821708 working-precision words and    77 shell-pairs
 PRISM was handed   372821708 working-precision words and    77 shell-pairs
 PRISM was handed   372821708 working-precision words and    77 shell-pairs
 PRISM was handed   372821708 working-precision words and    77 shell-pairs
 PRISM was handed   372821708 working-precision words and    77 shell-pairs
 PRISM was handed   372821708 working-precision words and    77 shell-pairs
 PRISM was handed   372821708 working-precision words and    77 shell-pairs
 PRISM was handed   372821708 working-precision words and    77 shell-pairs
 PRISM was handed   372821708 working-precision words and    77 shell-pairs
 PRISM was handed   372821708 working-precision words and    77 shell-pairs
 PRISM was handed   372821708 working-precision words and    77 shell-pairs
 PRISM was handed   372821708 working-precision words and    77 shell-pairs
 PRISM was handed   372821708 working-precision words and    77 shell-pairs
 PRISM was handed   372821708 working-precision words and    77 shell-pairs
 PRISM was handed   372821708 working-precision words and    77 shell-pairs
 PRISM was handed   372821708 working-precision words and    77 shell-pairs
 PRISM was handed   372821708 working-precision words and    77 shell-pairs
 PRISM was handed   372821708 working-precision words and    77 shell-pairs
 PRISM was handed   372821708 working-precision words and    77 shell-pairs
 PRISM was handed   372821708 working-precision words and    77 shell-pairs
 PRISM was handed   372821708 working-precision words and    77 shell-pairs
 PRISM was handed   372821708 working-precision words and    77 shell-pairs
 PRISM was handed   372821708 working-precision words and    77 shell-pairs
 PRISM was handed   372821708 working-precision words and    77 shell-pairs
 PRISM was handed   372821708 working-precision words and    77 shell-pairs
 IPart= 28 NShTot=           0 NBatch=           0 AvBLen=         0.0
 IPart=  9 NShTot=           3 NBatch=           1 AvBLen=         3.0
 IPart= 11 NShTot=           0 NBatch=           0 AvBLen=         0.0
 IPart= 26 NShTot=           0 NBatch=           0 AvBLen=         0.0
 IPart= 10 NShTot=           3 NBatch=           1 AvBLen=         3.0
 IPart=  6 NShTot=          15 NBatch=           5 AvBLen=         3.0
 IPart= 17 NShTot=           0 NBatch=           0 AvBLen=         0.0
 IPart=  8 NShTot=          15 NBatch=           5 AvBLen=         3.0
 IPart=  7 NShTot=          15 NBatch=           5 AvBLen=         3.0
 IPart= 22 NShTot=           0 NBatch=           0 AvBLen=         0.0
 IPart= 18 NShTot=           0 NBatch=           0 AvBLen=         0.0
 IPart= 21 NShTot=           0 NBatch=           0 AvBLen=         0.0
 IPart= 19 NShTot=           0 NBatch=           0 AvBLen=         0.0
 IPart= 16 NShTot=           0 NBatch=           0 AvBLen=         0.0
 IPart= 25 NShTot=           0 NBatch=           0 AvBLen=         0.0
 IPart= 20 NShTot=           0 NBatch=           0 AvBLen=         0.0
 IPart= 15 NShTot=           0 NBatch=           0 AvBLen=         0.0
 IPart=  0 NShTot=          42 NBatch=          14 AvBLen=         3.0
 IPart= 30 NShTot=           0 NBatch=           0 AvBLen=         0.0
 IPart= 12 NShTot=           0 NBatch=           0 AvBLen=         0.0
 IPart=  1 NShTot=          39 NBatch=          13 AvBLen=         3.0
 IPart=  4 NShTot=          24 NBatch=           8 AvBLen=         3.0
 IPart= 14 NShTot=           0 NBatch=           0 AvBLen=         0.0
 IPart= 23 NShTot=           0 NBatch=           0 AvBLen=         0.0
 IPart= 34 NShTot=           0 NBatch=           0 AvBLen=         0.0
 IPart= 27 NShTot=           0 NBatch=           0 AvBLen=         0.0
 IPart= 31 NShTot=           0 NBatch=           0 AvBLen=         0.0
 IPart= 32 NShTot=           0 NBatch=           0 AvBLen=         0.0
 IPart=  2 NShTot=          30 NBatch=          10 AvBLen=         3.0
 IPart= 29 NShTot=           0 NBatch=           0 AvBLen=         0.0
 IPart= 33 NShTot=           0 NBatch=           0 AvBLen=         0.0
 IPart=  5 NShTot=          21 NBatch=           7 AvBLen=         3.0
 IPart= 13 NShTot=           0 NBatch=           0 AvBLen=         0.0
 IPart= 24 NShTot=           0 NBatch=           0 AvBLen=         0.0
 IPart= 35 NShTot=           0 NBatch=           0 AvBLen=         0.0
 IPart=  3 NShTot=          24 NBatch=           8 AvBLen=         3.0
 PrSmSu:  NxtVal=             37.
 VNN+D1ST+D1V
 I=    0 X=   0.000000000000D+00 Y=   0.000000000000D+00 Z=   0.000000000000D+00
 I=    1 X=   0.000000000000D+00 Y=   0.000000000000D+00 Z=   0.000000000000D+00
 I=    2 X=   0.000000000000D+00 Y=   0.000000000000D+00 Z=   1.886567324072D+01
 I=    3 X=   0.000000000000D+00 Y=   0.000000000000D+00 Z=  -1.886567324072D+01
 D1V
 I=    0 X=   0.000000000000D+00 Y=   0.000000000000D+00 Z=   0.000000000000D+00
 I=    1 X=   0.000000000000D+00 Y=   0.000000000000D+00 Z=   0.000000000000D+00
 I=    2 X=   0.000000000000D+00 Y=   0.000000000000D+00 Z=   3.444855020205D+01
 I=    3 X=   0.000000000000D+00 Y=   0.000000000000D+00 Z=  -3.444855020205D+01
 l701inpt
 I=    0 X=   0.000000000000D+00 Y=   0.000000000000D+00 Z=   0.000000000000D+00
 I=    1 X=   0.000000000000D+00 Y=   0.000000000000D+00 Z=   0.000000000000D+00
[...]
 Trust Radius=3.00D-01 FncErr=1.00D-07 GrdErr=1.00D-07
 Number of steps in this run=      2 maximum allowed number of steps=      2.
 GradGradGradGradGradGradGradGradGradGradGradGradGradGradGradGradGradGrad

                          Input orientation:                          
 ---------------------------------------------------------------------
 Center     Atomic      Atomic             Coordinates (Angstroms)
 Number     Number       Type             X           Y           Z
 ---------------------------------------------------------------------
      1          6           0        0.000000    0.000000    0.000000
      2          8           0        0.000000    0.000000    1.169167
      3          8           0        0.000000    0.000000   -1.169167
 ---------------------------------------------------------------------
                    Distance matrix (angstroms):
                    1          2          3
     1  C    0.000000
     2  O    1.169167   0.000000
     3  O    1.169167   2.338334   0.000000
 Stoichiometry    CO2
 Framework group  D*H[O(C),C*(O.O)]
 Deg. of freedom     1
 Full point group                 D*H     NOp   8
 Largest Abelian subgroup         D2H     NOp   8
 Largest concise Abelian subgroup C2      NOp   2
                         Standard orientation:                         
 ---------------------------------------------------------------------
 Center     Atomic      Atomic             Coordinates (Angstroms)
 Number     Number       Type             X           Y           Z
 ---------------------------------------------------------------------
      1          6           0        0.000000    0.000000    0.000000
      2          8           0        0.000000    0.000000    1.169167
      3          8           0        0.000000    0.000000   -1.169167
 ---------------------------------------------------------------------
 Rotational constants (GHZ):      0.0000000     11.5571875     11.5571875
 Standard basis: 6-31G(d) (6D, 7F)
 There are    14 symmetry adapted cartesian basis functions of AG  symmetry.
 There are     2 symmetry adapted cartesian basis functions of B1G symmetry.
 There are     4 symmetry adapted cartesian basis functions of B2G symmetry.
 There are     4 symmetry adapted cartesian basis functions of B3G symmetry.
 There are     1 symmetry adapted cartesian basis functions of AU  symmetry.
 There are    10 symmetry adapted cartesian basis functions of B1U symmetry.
 There are     5 symmetry adapted cartesian basis functions of B2U symmetry.
 There are     5 symmetry adapted cartesian basis functions of B3U symmetry.
 There are    14 symmetry adapted basis functions of AG  symmetry.
 There are     2 symmetry adapted basis functions of B1G symmetry.
 There are     4 symmetry adapted basis functions of B2G symmetry.
 There are     4 symmetry adapted basis functions of B3G symmetry.
 There are     1 symmetry adapted basis functions of AU  symmetry.
 There are    10 symmetry adapted basis functions of B1U symmetry.
 There are     5 symmetry adapted basis functions of B2U symmetry.
 There are     5 symmetry adapted basis functions of B3U symmetry.
    45 basis functions,    84 primitive gaussians,    45 cartesian basis functions
    11 alpha electrons       11 beta electrons
       nuclear repulsion energy        57.9341371571 Hartrees.
 NAtoms=    3 NActive=    3 NUniq=    2 SFac= 2.25D+00 NAtFMM=   60 NAOKFM=F Big=F
 Integral buffers will be    131072 words long.
 Raffenetti 2 integral format.
 Two-electron integral symmetry is turned on.
 One-electron integrals computed using PRISM.
 NBasis=    45 RedAO= T EigKep=  4.47D-03  NBF=    14     2     4     4     1    10     5     5
 NBsUse=    45 1.00D-06 EigRej= -1.00D+00 NBFU=    14     2     4     4     1    10     5     5
 Initial guess from the checkpoint file:  "CO2.chk"
 B after Tr=     0.000000    0.000000    0.000000
         Rot=    1.000000    0.000000    0.000000    0.000000 Ang=   0.00 deg.
 Initial guess orbital symmetries:
       Occupied  (SGG) (SGU) (SGG) (SGG) (SGU) (SGG) (SGU) (PIU)
                 (PIU) (PIG) (PIG)
       Virtual   (PIU) (PIU) (SGG) (SGU) (PIU) (PIU) (SGG) (SGU)
                 (SGG) (PIG) (PIG) (SGU) (PIU) (PIU) (SGG) (DLTG)
                 (DLTG) (PIG) (PIG) (DLTU) (DLTU) (SGU) (DLTG)
                 (DLTG) (PIU) (PIU) (SGG) (SGU) (PIG) (PIG) (SGG)
                 (SGG) (SGG) (SGU)
 Keep R1 ints in memory in symmetry-blocked form, NReq=1432812.
 Requested convergence on RMS density matrix=1.00D-08 within 128 cycles.
 Requested convergence on MAX density matrix=1.00D-06.
 Requested convergence on             energy=1.00D-06.
 No special actions if energy rises.
 SCF Done:  E(RB3LYP) =  -188.580940224     A.U. after    1 cycles
            NFock=  1  Conv=0.78D-09     -V/T= 2.0089
 DoSCS=F DFT=T ScalE2(SS,OS)=  1.000000  1.000000
 Range of M.O.s used for correlation:     1    45
 NBasis=    45 NAE=    11 NBE=    11 NFC=     0 NFV=     0
 NROrb=     45 NOA=    11 NOB=    11 NVA=    34 NVB=    34
 Symmetrizing basis deriv contribution to polar:
 IMax=3 JMax=2 DiffMx= 0.00D+00
 G2DrvN: will do     4 centers at a time, making    1 passes.
 Calling FoFCou, ICntrl=  3107 FMM=F I1Cent=   0 AccDes= 0.00D+00.
 End of G2Drv F.D. properties file   721 does not exist.
 End of G2Drv F.D. properties file   722 does not exist.
 End of G2Drv F.D. properties file   788 does not exist.
          IDoAtm=111
          Differentiating once with respect to electric field.
                with respect to dipole field.
          Differentiating once with respect to nuclear coordinates.
 Keep R1 ints in memory in symmetry-blocked form, NReq=1406006.
          There are     9 degrees of freedom in the 1st order CPHF.  IDoFFX=4 NUNeed=     9.
      9 vectors produced by pass  0 Test12= 4.16D-15 1.11D-08 XBig12= 2.64D+01 3.45D+00.
 AX will form     9 AO Fock derivatives at one time.
      9 vectors produced by pass  1 Test12= 4.16D-15 1.11D-08 XBig12= 9.63D+00 1.31D+00.
      9 vectors produced by pass  2 Test12= 4.16D-15 1.11D-08 XBig12= 3.75D-02 6.58D-02.
      9 vectors produced by pass  3 Test12= 4.16D-15 1.11D-08 XBig12= 1.47D-04 5.31D-03.
      9 vectors produced by pass  4 Test12= 4.16D-15 1.11D-08 XBig12= 4.55D-07 2.49D-04.
      7 vectors produced by pass  5 Test12= 4.16D-15 1.11D-08 XBig12= 5.00D-09 3.71D-05.
      2 vectors produced by pass  6 Test12= 4.16D-15 1.11D-08 XBig12= 2.51D-11 1.65D-06.
      1 vectors produced by pass  7 Test12= 4.16D-15 1.11D-08 XBig12= 1.72D-14 5.10D-08.
 InvSVY:  IOpt=1 It=  1 EMax= 3.01D-16
 Solved reduced A of dimension    55 with     9 vectors.
 Isotropic polarizability for W=    0.000000       12.48 Bohr**3.
 End of Minotr F.D. properties file   721 does not exist.
 End of Minotr F.D. properties file   722 does not exist.
 End of Minotr F.D. properties file   788 does not exist.

 **********************************************************************

            Population analysis using the SCF density.

 **********************************************************************

 Orbital symmetries:
       Occupied  (SGG) (SGU) (SGG) (SGG) (SGU) (SGG) (SGU) (PIU)
                 (PIU) (PIG) (PIG)
       Virtual   (PIU) (PIU) (SGG) (SGU) (PIU) (PIU) (SGG) (SGU)
                 (SGG) (PIG) (PIG) (SGU) (PIU) (PIU) (SGG) (DLTG)
                 (DLTG) (PIG) (PIG) (DLTU) (DLTU) (SGU) (DLTG)
                 (DLTG) (PIU) (PIU) (SGG) (SGU) (PIG) (PIG) (SGG)
                 (SGG) (SGG) (SGU)
 The electronic state is 1-SGG.
 Alpha  occ. eigenvalues --  -19.23659 -19.23659 -10.38530  -1.16098  -1.11963
 Alpha  occ. eigenvalues --   -0.56234  -0.51655  -0.51277  -0.51277  -0.36997
 Alpha  occ. eigenvalues --   -0.36997
 Alpha virt. eigenvalues --    0.02991   0.02991   0.08433   0.36578   0.47260
 Alpha virt. eigenvalues --    0.47260   0.58434   0.73524   0.78154   0.87419
 Alpha virt. eigenvalues --    0.87419   1.03773   1.04165   1.04165   1.37741
 Alpha virt. eigenvalues --    1.39388   1.39388   1.40640   1.40640   1.72628
 Alpha virt. eigenvalues --    1.72628   1.83356   2.02760   2.02761   2.12104
 Alpha virt. eigenvalues --    2.12104   2.72072   2.91522   2.95399   2.95399
 Alpha virt. eigenvalues --    3.04930   3.74168   4.38892   4.45002
          Condensed to atoms (all electrons):
               1          2          3
     1  C    4.105519   0.587494   0.587494
     2  O    0.587494   7.793896  -0.021644
     3  O    0.587494  -0.021644   7.793896
 Mulliken charges:
               1
     1  C    0.719493
     2  O   -0.359746
     3  O   -0.359746
 Sum of Mulliken charges =  -0.00000
 Mulliken charges with hydrogens summed into heavy atoms:
               1
     1  C    0.719493
     2  O   -0.359746
     3  O   -0.359746
 APT charges:
               1
     1  C    1.086303
     2  O   -0.543152
     3  O   -0.543152
 Sum of APT charges =  -0.00000
 APT charges with hydrogens summed into heavy atoms:
               1
     1  C    1.086303
     2  O   -0.543152
     3  O   -0.543152
 Electronic spatial extent (au):  <R**2>=            113.6537
 Charge=             -0.0000 electrons
 Dipole moment (field-independent basis, Debye):
    X=             -0.0000    Y=              0.0000    Z=              0.0000  Tot=              0.0000
 Quadrupole moment (field-independent basis, Debye-Ang):
   XX=            -14.4508   YY=            -14.4508   ZZ=            -18.9144
   XY=              0.0000   XZ=              0.0000   YZ=              0.0000
 Traceless Quadrupole moment (field-independent basis, Debye-Ang):
   XX=              1.4879   YY=              1.4879   ZZ=             -2.9757
   XY=              0.0000   XZ=              0.0000   YZ=              0.0000
 Octapole moment (field-independent basis, Debye-Ang**2):
  XXX=             -0.0000  YYY=             -0.0000  ZZZ=              0.0000  XYY=             -0.0000
  XXY=              0.0000  XXZ=             -0.0000  XZZ=             -0.0000  YZZ=              0.0000
  YYZ=             -0.0000  XYZ=             -0.0000
 Hexadecapole moment (field-independent basis, Debye-Ang**3):
 XXXX=            -10.3564 YYYY=            -10.3564 ZZZZ=           -100.4955 XXXY=              0.0000
 XXXZ=              0.0000 YYYX=              0.0000 YYYZ=              0.0000 ZZZX=              0.0000
 ZZZY=              0.0000 XXYY=             -3.4521 XXZZ=            -18.0714 YYZZ=            -18.0714
 XXYZ=              0.0000 YYXZ=              0.0000 ZZXY=             -0.0000
 N-N= 5.793413715706D+01 E-N=-5.588902542586D+02  KE= 1.869160545703D+02
 Symmetry AG   KE= 1.008893958058D+02
 Symmetry B1G  KE= 1.111991580181D-33
 Symmetry B2G  KE= 4.896519096392D+00
 Symmetry B3G  KE= 4.896519096392D+00
 Symmetry AU   KE= 1.943104506346D-34
 Symmetry B1U  KE= 6.901032839669D+01
 Symmetry B2U  KE= 3.611646087501D+00
 Symmetry B3U  KE= 3.611646087501D+00
  Exact polarizability:   7.689   0.000   7.689   0.000   0.000  22.074
 Approx polarizability:   9.915  -0.000   9.915  -0.000  -0.000  46.781
 Calling FoFJK, ICntrl=    100127 FMM=F ISym2X=1 I1Cent= 0 IOpClX= 0 NMat=1 NMatS=1 NMatT=0.
 Full mass-weighted force constant matrix:
 Low frequencies ---    0.0011    0.0012    0.0018    6.2376    6.2376  640.0756
 Low frequencies ---  640.0756 1372.0486 2436.3399
 Diagonal vibrational polarizability:
        2.0177122       2.0177122       2.4741017
 Harmonic frequencies (cm**-1), IR intensities (KM/Mole), Raman scattering
 activities (A**4/AMU), depolarization ratios for plane and unpolarized
 incident light, reduced masses (AMU), force constants (mDyne/A),
 and normal coordinates:
                      1                      2                      3
                     PIU                    PIU                    SGG
 Frequencies --    640.0756               640.0756              1372.0486
 Red. masses --     12.8774                12.8774                15.9949
 Frc consts  --      3.1084                 3.1084                17.7407
 IR Inten    --     30.7177                30.7177                 0.0000
  Atom  AN      X      Y      Z        X      Y      Z        X      Y      Z
     1   6    -0.41   0.78  -0.00     0.78   0.41   0.00    -0.00  -0.00   0.00
     2   8     0.16  -0.29   0.00    -0.29  -0.16   0.00     0.00   0.00   0.71
     3   8     0.16  -0.29  -0.00    -0.29  -0.16  -0.00     0.00   0.00  -0.71
                      4
                     SGU
 Frequencies --   2436.3399
 Red. masses --     12.8774
 Frc consts  --     45.0353
 IR Inten    --    545.7078
  Atom  AN      X      Y      Z
     1   6    -0.00   0.00   0.88
     2   8     0.00  -0.00  -0.33
     3   8     0.00  -0.00  -0.33

 -------------------
 - Thermochemistry -
 -------------------
 Temperature   298.150 Kelvin.  Pressure   1.00000 Atm.
 Atom     1 has atomic number  6 and mass  12.00000
 Atom     2 has atomic number  8 and mass  15.99491
 Atom     3 has atomic number  8 and mass  15.99491
 Molecular mass:    43.98983 amu.
 Principal axes and moments of inertia in atomic units:
                           1         2         3
     Eigenvalues --     0.00000 156.15747 156.15747
           X           -0.00000   0.70711   0.70711
           Y           -0.00000   0.70711  -0.70711
           Z            1.00000   0.00000   0.00000
 This molecule is a prolate symmetric top.
 Rotational symmetry number  2.
 Rotational temperature (Kelvin)      0.55466
 Rotational constant (GHZ):          11.557187
 Zero-point vibrational energy      30436.2 (Joules/Mol)
                                    7.27443 (Kcal/Mol)
 Vibrational temperatures:    920.92   920.92  1974.07  3505.35
          (Kelvin)
 
 Zero-point correction=                           0.011593 (Hartree/Particle)
 Thermal correction to Energy=                    0.014240
 Thermal correction to Enthalpy=                  0.015184
 Thermal correction to Gibbs Free Energy=        -0.009126
 Sum of electronic and zero-point Energies=           -188.569348
 Sum of electronic and thermal Energies=              -188.566700
 Sum of electronic and thermal Enthalpies=            -188.565756
 Sum of electronic and thermal Free Energies=         -188.590066
 
                     E (Thermal)             CV                S
                      KCal/Mol        Cal/Mol-Kelvin    Cal/Mol-Kelvin
 Total                    8.936              6.983             51.165
 Electronic               0.000              0.000              0.000
 Translational            0.889              2.981             37.270
 Rotational               0.592              1.987             13.103
 Vibrational              7.454              2.015              0.792
                       Q            Log10(Q)             Ln(Q)
 Total Bot       0.157673D+05          4.197756          9.665691
 Total V=0       0.338802D+10          9.529946         21.943512
 Vib (Bot)       0.511555D-05         -5.291108        -12.183226
 Vib (V=0)       0.109921D+01          0.041082          0.094595
 Electronic      0.100000D+01          0.000000          0.000000
 Translational   0.114679D+08          7.059484         16.255062
 Rotational      0.268770D+03          2.429380          5.593855
 ***** Axes restored to original set *****
 -------------------------------------------------------------------
 Center     Atomic                   Forces (Hartrees/Bohr)
 Number     Number              X              Y              Z
 -------------------------------------------------------------------
      1        6           0.000000000    0.000000000    0.000000000
      2        8           0.000000000    0.000000000   -0.000000173
      3        8          -0.000000000   -0.000000000    0.000000173
 -------------------------------------------------------------------
 Cartesian Forces:  Max     0.000000173 RMS     0.000000081
 FormGI is forming the generalized inverse of G from B-inverse, IUseBI=4.

 GradGradGradGradGradGradGradGradGradGradGradGradGradGradGradGradGradGrad
 Berny optimization.
 Internal  Forces:  Max     0.000000173 RMS     0.000000122
 Search for a local minimum.
 Step number   1 out of a maximum of    2
 All quantities printed in internal units (Hartrees-Bohrs-Radians)
 Second derivative matrix not updated -- analytic derivatives used.
 The second derivative matrix:
                          R1        R2        A1        A2
           R1           1.05981
           R2           0.07969   1.05981
           A1          -0.00000  -0.00000   0.16511
           A2          -0.00000   0.00000  -0.00000   0.16511
 ITU=  0
     Eigenvalues ---    0.16511   0.16511   0.98012   1.13949
 Angle between quadratic step and forces=  90.00 degrees.
 Linear search not attempted -- first point.
 Iteration  1 RMS(Cart)=  0.00000011 RMS(Int)=  0.00000000
 ClnCor:  largest displacement from symmetrization is 3.73D-14 for atom     1.
 Variable       Old X    -DE/DX   Delta X   Delta X   Delta X     New X
                                 (Linear)    (Quad)   (Total)
    R1        2.20941  -0.00000   0.00000  -0.00000  -0.00000   2.20941
    R2        2.20941  -0.00000   0.00000  -0.00000  -0.00000   2.20941
    A1        3.14159   0.00000   0.00000   0.00000   0.00000   3.14159
    A2        3.14159  -0.00000   0.00000  -0.00000   0.00000   3.14159
         Item               Value     Threshold  Converged?
 Maximum Force            0.000000     0.000450     YES
 RMS     Force            0.000000     0.000300     YES
 Maximum Displacement     0.000000     0.001800     YES
 RMS     Displacement     0.000000     0.001200     YES
 Predicted change in Energy=-2.621725D-14
 Optimization completed.
    -- Stationary point found.
                           ----------------------------
                           !   Optimized Parameters   !
                           ! (Angstroms and Degrees)  !
 --------------------------                            --------------------------
 ! Name  Definition              Value          Derivative Info.                !
 --------------------------------------------------------------------------------
 ! R1    R(1,2)                  1.1692         -DE/DX =    0.0                 !
 ! R2    R(1,3)                  1.1692         -DE/DX =    0.0                 !
 ! A1    L(2,1,3,-1,-1)        180.0            -DE/DX =    0.0                 !
 ! A2    L(2,1,3,-2,-2)        180.0            -DE/DX =    0.0                 !
 --------------------------------------------------------------------------------
 GradGradGradGradGradGradGradGradGradGradGradGradGradGradGradGradGradGrad


 Test job not archived.
 1\1\GINC-OR-CONDO-C165\Freq\RB3LYP\6-31G(d)\C1O2\HZU\27-Jun-2022\0\\#N
  Geom=AllCheck Guess=TCheck SCRF=Check Test GenChk RB3LYP/6-31G(d) Fre
 q\\CO2 test\\0,1\C,0.,0.,0.\O,0.,0.,1.1691670235\O,0.,0.,-1.1691670235
 \\Version=ES64L-G09RevE.01\State=1-SGG\HF=-188.5809402\RMSD=7.801e-10\
 RMSF=8.148e-08\ZeroPoint=0.0115925\Thermal=0.0142398\Dipole=0.,0.,0.\D
 ipoleDeriv=0.5243715,0.,0.,0.,0.5243715,0.,0.,0.,2.2101661,-0.2621858,
 0.,0.,0.,-0.2621858,0.,0.,0.,-1.105083,-0.2621858,0.,0.,0.,-0.2621858,
 0.,0.,0.,-1.105083\Polar=7.6886523,0.,7.6886523,0.,0.,22.0740573\PG=D*
 H [O(C1),C*(O1.O1)]\NImag=0\\0.13529907,0.,0.13529907,0.,0.,1.96023477
 ,-0.06764954,0.,0.,0.03383654,0.,-0.06764954,0.,0.,0.03383654,0.,0.,-0
 .98011739,0.,0.,1.05980615,-0.06764954,0.,0.,0.03381299,0.,0.,0.033836
 54,0.,-0.06764954,0.,0.,0.03381299,0.,0.,0.03383654,0.,0.,-0.98011739,
 0.,0.,-0.07968876,0.,0.,1.05980615\\0.,0.,0.,0.,0.,0.00000017,0.,0.,-0
 .00000017\\\@


 WHERE THERE IS MUCH DESIRE TO LEARN, THERE OF NECESSITY WILL BE
 MUCH ARGUING, MUCH WRITING, MANY OPINIONS; FOR OPINION IN GOOD MEN
 IS BUT KNOWLEDGE IN THE MAKING. -- JOHN MILTON.
 Job cpu time:       0 days  0 hours  2 minutes 36.5 seconds.
 File lengths (MBytes):  RWF=      5 Int=      0 D2E=      0 Chk=      1 Scr=      1
 Normal termination of Gaussian 09 at Mon Jun 27 12:09:39 2022.
